ITEM: TIMESTEP
0
ITEM: NUMBER OF ATOMS
222
ITEM: BOX BOUNDS xy xz yz pp pp ff
0.0000000000000000e+00 1.1653169955469000e+01 0.0000000000000000e+00
0.0000000000000000e+00 1.0091941216054000e+01 0.0000000000000000e+00
0.0000000000000000e+00 4.0182547999999997e+01 0.0000000000000000e+00
ITEM: ATOMS id type element xu yu zu fx fy fz
1 1 As 10.2103 1.7944 11.2981 0.481325 0.270394 0.674721
2 1 As 5.29306 6.70732 11.3375 -0.127606 -0.618737 0.339068
3 1 As 1.72393 6.18163 12.2196 -0.219657 0.290523 1.1038
4 1 As 9.78759 5.68016 19.0453 -0.545379 0.306925 -0.38618
5 1 As 6.01075 3.12795 18.7625 -0.292751 -0.166985 -0.22029
6 1 As 1.64341 8.80597 18.5042 0.202854 0.387779 0.12637
7 1 As 2.8603 1.95205 11.2115 -0.0233915 0.348848 1.06262
8 1 As 7.54794 1.48218 14.1732 -0.617732 0.264228 0.607378
9 2 F 3.80356 0.699432 10.5008 0.0467012 -0.0617443 -0.193891
10 2 F 3.68446 0.570344 0.816065 0 0 0
11 2 F 9.51104 0.570344 0.816065 0 0 0
12 2 F 0.771166 5.61631 0.816065 0 0 0
13 2 F 6.59775 5.61631 0.816065 0 0 0
14 2 F 9.25745 1.30134 14.2666 -0.149906 -0.340963 0.183206
15 2 F 6.67971 0.789946 12.8575 -0.128698 -0.159187 0.0130508
16 2 F 8.50405 4.70916 19.6565 0.30956 0.197427 0.18344
17 2 F 10.1044 7.22387 19.7385 -0.0965217 0.0536636 0.355584
18 2 F 1.72828 0.764376 11.8023 0.00321162 0.00975642 -0.0252431
19 2 F 8.68931 6.41613 17.9081 0.354795 -0.25223 0.223055
20 2 F 10.8859 4.94417 20.1825 0.179363 -0.143662 0.183946
21 2 F 11.2037 6.32004 2.80035 0 0 0
22 2 F 6.70664 2.35526 15.3954 0.231282 -0.621658 -0.595053
23 2 F 1.60196 2.70109 10.3063 0.0942128 -0.062655 -0.355619
24 2 F 3.17536 2.45564 12.8273 0.140527 -0.408331 -0.368392
25 2 F 3.99232 3.13973 10.6206 0.028727 -0.125443 -0.320796
26 2 F 10.7543 5.1074 17.741 0.0439566 0.0382356 0.0605205
27 2 F 10.7317 1.27407 2.80035 0 0 0
28 2 F 8.2904 1.27407 2.80035 0 0 0
29 2 F 11.2024 2.95642 5.41686 -0.0207951 -0.000770805 -0.0848521
30 2 F 3.68349 7.29864 7.40122 -0.0552125 0.0918442 -0.154348
31 2 F 9.51007 7.29864 7.40122 0.0187103 0.0131382 -0.029772
32 2 F 0.770192 2.25267 7.40122 0.00127154 0.0874665 -0.224549
33 2 F 6.59678 2.25267 7.40122 0.0186075 0.0241255 -0.0830795
34 2 F 11.2046 7.72902 0.816065 0 0 0
35 2 F 5.37798 7.72902 0.816065 0 0 0
36 2 F 8.29127 2.68305 0.816065 0 0 0
37 2 F 2.46469 2.68305 0.816065 0 0 0
38 2 F 7.8184 6.32004 2.80035 0 0 0
39 2 F 1.99181 6.32004 2.80035 0 0 0
40 2 F 4.9051 1.27407 2.80035 0 0 0
41 2 F 4.90545 8.00072 5.41686 0.00221554 -0.0165137 -0.0823471
42 2 F 10.732 8.00072 5.41686 0.0073215 -0.011191 -0.0572073
43 2 F 1.99216 2.95475 5.41686 0.0049967 -0.000938317 -0.0880707
44 2 F 7.81875 2.95475 5.41686 0.0140555 -0.00106312 -0.0776532
45 2 F 2.46547 9.41168 7.40123 -0.00415019 -0.0481077 -0.080668
46 2 F 8.29205 9.41168 7.40123 0.047805 -0.031564 -0.0695331
47 2 F 5.37876 4.36571 7.40122 0.0836545 -0.0537758 -0.175807
48 2 F 11.2053 4.36571 7.40122 0.0442205 0.0192775 -0.1158
49 2 F 2.46381 1.27407 2.80035 0 0 0
50 2 F 5.37711 6.32004 2.80035 0 0 0
51 2 F 7.34235 0.009237 15.0838 0.02047 -0.365488 -0.59541
52 2 F 5.22944 2.08906 17.6337 -0.0132855 0.306607 0.0664414
53 2 F 5.37579 2.95642 5.41686 -0.00434316 -0.00569958 -0.0832533
54 2 F 5.57818 8.16854 10.4294 0.0508806 0.0769416 -0.184419
55 2 F 10.8628 7.92696 17.294 -0.282061 -0.106473 -0.634718
56 2 F 0.04176 4.12889 15.7126 2.11045 0.213656 1.32153
57 2 F 2.14507 3.52119 20.1772 -0.864577 0.412318 0.338876
58 2 F 2.78963 1.73202 18.4743 -0.701142 -0.28129 -0.725159
59 2 F 10.0385 1.0481 17.1538 0.119647 -0.398388 -0.524272
60 2 F 4.54774 8.60782 16.7745 0.232859 -0.0700875 -0.609109
61 2 F 3.29018 4.53056 18.1072 -0.136184 0.249762 -0.866925
62 2 F 0.814647 8.10195 14.6811 -0.698037 0.119431 0.108317
63 2 F 11.1138 2.30628 19.1635 0.0945719 0.27909 0.384597
64 2 F 4.11662 1.29581 14.9617 -0.162549 -0.346029 0.178089
65 2 F 3.37403 6.17302 20.1624 0.309577 0.688579 0.0341411
66 2 F 6.82714 4.74353 15.7145 -0.256149 0.333897 -0.290688
67 2 F 10.0491 3.70518 14.7559 -2.25939 -0.137112 -0.965085
68 2 F 7.36176 0.601025 17.4341 0.0171768 -0.636311 0.836985
69 2 F 8.93974 0.774118 20.1767 0.118812 -0.582604 0.048965
70 2 F 2.60929 4.12942 15.2638 0.46531 -0.203801 0.388623
71 2 F 1.15364 1.12395 15.3129 -0.441149 0.0370262 0.0519162
72 2 F 5.71095 6.86098 14.1757 0.126694 0.679418 0.430348
73 2 F 5.00796 5.2461 12.2457 -0.024267 0.0711987 -0.269883
74 2 F 7.75353 2.95512 13.2625 -0.0878547 0.128503 0.262856
75 2 F 4.87878 5.88433 9.88327 0.607166 0.0277707 -0.285449
76 2 F 6.92666 6.72606 11.8806 0.196668 0.0882308 -0.294131
77 2 F 6.97597 2.46008 20.0219 -0.0431083 -0.0374238 0.12236
78 2 F 5.82682 4.83468 18.6318 0.196165 0.0941535 0.0761972
79 2 F 4.60962 3.05626 19.7983 0.586171 -0.0745867 0.197139
80 2 F 7.41187 3.19963 17.7267 0.0197652 0.170115 0.358117
81 2 F 1.26177 7.12768 18.5434 0.209765 -0.235205 0.0441574
82 2 F 3.22861 9.33803 18.914 -0.0626146 -0.434025 0.267474
83 2 F 0.439851 9.95217 18.0553 0.254565 0.274832 0.179254
84 2 F 1.16203 8.95437 20.1738 -0.0773177 -0.0298714 -0.0206807
85 2 F 2.1248 8.65756 16.8347 -0.379134 -0.0172223 0.0633826
86 2 F 0.006062 6.109 12.1329 -0.00360415 -0.0457477 -0.112073
87 2 F 2.65927 6.18658 10.7743 -0.581738 -0.242487 -0.560934
88 2 F 2.50642 6.2493 13.7516 -0.275068 -0.197007 -0.106959
89 2 F 1.79554 4.43967 12.26 -0.150992 0.38271 -0.0648918
90 2 F 1.65231 7.92358 12.1792 -0.311993 -0.0410568 -0.393784
91 2 F 8.49471 1.85581 11.1687 0.23215 -0.195049 -0.575145
92 2 F 10.9899 2.40774 12.7052 0.116885 -0.0539341 -0.414124
93 2 F 11.1463 1.11966 10.0204 -0.288212 -0.125803 -0.249924
94 2 F 10.323 3.36597 10.5507 -0.085669 -0.0339625 -0.218854
95 2 F 10.0977 0.222836 12.0455 0.00789896 -0.17748 -0.197875
96 2 F 4.0738 7.51157 12.2488 0.778913 0.536758 -0.053138
97 2 F 8.28909 8.00239 5.41686 0.0207415 -0.00330139 -0.0564321
98 2 F 6.47643 6.90935 17.1834 -0.0621544 0.456863 -0.298174
99 2 F 3.68446 3.38829 2.80035 0 0 0
100 2 F 2.4625 8.00239 5.41686 -0.0293653 -0.0173533 -0.0775121
101 2 F 6.59871 5.07124 5.41686 0.00835313 0.0150229 -0.0844028
102 2 F 0.772129 5.07124 5.41686 -0.00839413 0.0398787 -0.0904497
103 2 F 9.51201 10.1172 5.41686 0.0101354 -0.0134361 -0.0588821
104 2 F 7.81772 4.36402 7.40122 -0.0125056 0.00225867 -0.0712421
105 2 F 1.99113 4.36402 7.40122 -0.0729174 0.00694034 -0.148332
106 2 F 10.731 9.41 7.40122 -0.0448329 -0.0792108 -0.105141
107 2 F 3.68542 10.1172 5.41686 -0.0128032 -0.00117786 -0.0801713
108 2 F 7.81752 7.72902 0.816065 0 0 0
109 2 F 1.99093 7.72902 0.816065 0 0 0
110 2 F 10.7308 2.68305 0.816065 0 0 0
111 2 F 4.90423 2.68305 0.816065 0 0 0
112 2 F 6.59775 8.43426 2.80035 0 0 0
113 2 F 0.771166 8.43426 2.80035 0 0 0
114 2 F 4.90442 9.41 7.40122 -0.0707297 -0.0406938 -0.163704
115 2 F 9.51104 3.38829 2.80035 0 0 0
116 3 H 10.3526 5.82872 4.7083 -0.00208041 -0.00671009 0.0368207
117 3 H 11.171 7.22516 16.7377 0.0696007 0.0513201 0.0827515
118 3 H 4.52601 5.82872 4.7083 -0.00528395 -0.00306039 0.0414147
119 3 H 0.209546 3.35934 16.2386 -0.0745351 0.191996 -0.177825
120 3 H 2.83141 2.47207 7.92167 0.018282 0.0187801 0.0929191
121 3 H 1.3977 3.99709 19.8425 0.394095 -0.144178 0.20268
122 3 H 1.99346 2.0694 18.0879 0.226857 -0.103833 0.341143
123 3 H 3.68381 0.993427 7.92167 0.0276438 0.0306708 0.104624
124 3 H 6.59775 7.02478 6.59028 0.0191273 0.00102439 0.0777572
125 3 H 7.4393 0.782748 4.7083 -0.00442276 0.00123598 0.0427939
126 3 H 9.51039 0.993428 7.92167 0.0539869 0.0612437 0.0540623
127 3 H 3.68446 8.70677 1.93343 0 0 0
128 3 H 6.5971 6.0394 7.92167 -0.0853772 0.0421437 0.0592537
129 3 H 1.6121 9.90325 0 0 0 0
130 3 H 7.43869 9.90325 0 0 0 0
131 3 H 4.52539 4.85728 0 0 0 0
132 3 H 10.352 4.85728 0 0 0 0
133 3 H 10.135 0.115318 17.021 -0.0920885 0.321572 0.115279
134 3 H 9.51104 8.70677 1.93343 0 0 0
135 3 H 0.771166 3.6608 1.93343 0 0 0
136 3 H 6.59775 3.6608 1.93343 0 0 0
137 3 H 8.66944 5.82864 4.7083 -0.000367576 -0.00538948 0.0403275
138 3 H 0.770517 6.0394 7.92167 0.0295385 -0.0501402 0.0658392
139 3 H 0.771166 7.02478 6.59028 0.00752583 -0.00399613 0.0413904
140 3 H 5.74471 7.51804 7.92167 0.0249502 -0.0357126 0.150984
141 3 H 9.51104 1.97881 6.59028 -0.0245359 0.0062241 0.0849188
142 3 H 8.67333 8.22312 3.30385 0 0 0
143 3 H 5.91746 7.77673 14.0501 -0.0450047 -0.191324 0.121839
144 3 H 5.76004 3.17715 3.30385 0 0 0
145 3 H 0.227035 0.962194 15.2022 0.327189 0.244156 0.0328254
146 3 H 11.5866 3.17715 3.30385 0 0 0
147 3 H 2.78362 3.37817 15.8136 0.120055 0.106147 -0.300398
148 3 H 4.53815 2.47094 7.92167 -0.0529195 0.0103624 0.117309
149 3 H 9.39575 0.000582 19.8755 0.0745573 0.29585 0.050709
150 3 H 10.3647 2.47094 7.92167 -0.0126727 -0.0338538 0.127089
151 3 H 7.39478 0.046497 18.2011 -0.0109415 0.222343 -0.31444
152 3 H 1.62486 7.51691 7.92167 0.0523449 -0.0088526 0.0610827
153 3 H 4.30203 8.02627 16.0685 0.0676092 0.12282 0.300869
154 3 H 9.30643 4.1616 15.1263 -0.226481 -0.0585957 -0.0174702
155 3 H 5.88272 4.7163 15.6485 0.484776 0.0332366 -0.126291
156 3 H 3.68446 9.67408 3.30385 0 0 0
157 3 H 3.78264 6.90509 19.7218 -0.129688 -0.423305 0.21136
158 3 H 8.658 2.47207 7.92167 0.0372277 0.00729373 0.0375725
159 3 H 3.70266 0.552223 15.3773 0.16635 0.213817 0.054249
160 3 H 9.51104 9.67408 3.30385 0 0 0
161 3 H 10.8032 2.57123 20.0181 0.0837401 -0.129025 -0.421817
162 3 H 11.5713 7.51804 7.92167 0.0161377 0.0120351 0.0126506
163 3 H 0.000664 8.57356 14.5714 0.357436 -0.144159 -0.100625
164 3 H 3.68446 1.97881 6.59028 -0.00518535 -0.00090135 0.0883182
165 3 H 3.49715 5.23529 17.5093 -0.136352 -0.208195 0.113135
166 3 H 7.45144 7.51691 7.92167 -0.0798757 0.00266231 0.0283183
167 3 H 0.771166 4.62811 3.30385 0 0 0
168 3 H 9.51104 5.34279 1.36921 0 0 0
169 3 H 5.75681 9.90325 0 0 0 0
170 3 H 6.93355 7.23473 16.4204 -0.223942 -0.244427 0.451059
171 3 H 6.59775 4.62811 3.30385 0 0 0
172 3 H 1.60888 3.17715 3.30385 0 0 0
173 3 H 10.3488 8.22312 3.30385 0 0 0
174 3 H 4.52217 8.22312 3.30385 0 0 0
175 3 H 6.5978 9.41699 4.7083 -0.00364451 0.00323184 0.0412065
176 3 H 0.771214 9.41699 4.7083 0.00501443 0.00936584 0.0371486
177 3 H 3.68451 4.37102 4.7083 -0.00188661 0.00476432 0.04687
178 3 H 3.68446 6.31382 0 0 0 0
179 3 H 9.51104 6.31382 0 0 0 0
180 3 H 0.771166 1.26785 0 0 0 0
181 3 H 6.59775 1.26785 0 0 0 0
182 3 H 5.75615 0.782665 4.7083 -8.03671e-05 0.00022192 0.0438474
183 3 H 7.43547 3.17715 3.30385 0 0 0
184 3 H 2.84286 5.82864 4.7083 0.00749156 -0.00751388 0.0389903
185 3 H 11.5834 9.90325 0 0 0 0
186 3 H 11.5827 0.782665 4.7083 0.00532191 0.000680556 0.0399389
187 3 H 2.84352 4.85728 0 0 0 0
188 3 H 8.67011 4.85728 0 0 0 0
189 3 H 0.771166 0.296822 1.36921 0 0 0
190 3 H 6.59775 0.296822 1.36921 0 0 0
191 3 H 1.61272 0.782748 4.7083 -0.000187421 0.000484852 0.0432609
192 3 H 0.771166 0.296822 6.07566 0.00222808 0.0119158 0.0565157
193 3 H 6.59775 0.296822 6.07566 -0.00651709 0.00353794 0.0410507
194 3 H 3.68446 5.34279 6.07566 0.00289945 -0.00603881 0.0682738
195 3 H 9.51104 5.34279 6.07566 -0.000643489 -0.0137453 0.037041
196 3 H 2.84674 8.22312 3.30385 0 0 0
197 3 H 3.68446 5.34279 1.36921 0 0 0
198 3 H 9.51109 4.37102 4.7083 0.0016557 -0.000361339 0.0428917
199 4 N 3.68446 5.34279 5.04741 -0.000610344 0.00383781 -0.00354055
200 4 N 6.59775 0.296822 5.04741 -0.00135947 -0.00349222 -0.00627107
201 4 N 0.771167 0.296821 5.04741 -0.00292394 0.00013104 -0.00702695
202 4 N 9.51104 1.97881 7.62088 -0.0200161 0.00901178 -0.104453
203 4 N 0.771166 7.02478 7.62088 -0.0111446 0.00425484 -0.00488908
204 4 N 3.68446 1.97881 7.62088 0.0141548 -0.00510283 -0.155941
205 4 N 6.59775 3.6608 2.95976 0 0 0
206 4 N 0.771166 3.6608 2.95976 0 0 0
207 4 N 6.59775 7.02478 7.62088 0.0360691 0.00784449 -0.137953
208 4 N 9.51104 5.34279 5.04741 0.00148591 0.00331833 -0.00181261
209 4 N 3.68446 5.34279 0.342545 0 0 0
210 4 N 6.59775 0.296822 0.342545 0 0 0
211 4 N 9.51104 5.34279 0.342545 0 0 0
212 4 N 3.68446 8.70677 2.95976 0 0 0
213 4 N 0.771166 0.296822 0.342545 0 0 0
214 4 N 9.51104 8.70677 2.95976 0 0 0
215 5 Si 6.59775 3.6608 6.42034 -0.0684987 0.00892612 0.336244
216 5 Si 0.771166 3.6608 6.42034 0.0436014 -0.066237 0.41817
217 5 Si 9.51104 8.70677 6.42034 -0.0267389 0.070571 0.234848
218 5 Si 6.59775 7.02478 1.80169 0 0 0
219 5 Si 0.771166 7.02478 1.80169 0 0 0
220 5 Si 9.51104 1.97881 1.80169 0 0 0
221 5 Si 3.68446 1.97881 1.80169 0 0 0
222 5 Si 3.68446 8.70677 6.42034 0.0911594 0.0176781 0.373068
ITEM: TIMESTEP
100
ITEM: NUMBER OF ATOMS
222
ITEM: BOX BOUNDS xy xz yz pp pp ff
0.0000000000000000e+00 1.1653169955469000e+01 0.0000000000000000e+00
0.0000000000000000e+00 1.0091941216054000e+01 0.0000000000000000e+00
0.0000000000000000e+00 4.0182547999999997e+01 0.0000000000000000e+00
ITEM: ATOMS id type element xu yu zu fx fy fz
1 1 As 10.4067 1.89525 10.9566 -0.563592 -1.16041 1.28139
2 1 As 5.41783 6.83924 11.2386 -0.606181 -0.666129 1.01486
3 1 As 1.38037 6.29541 12.2456 0.57063 2.05755 1.65287
4 1 As 9.7754 5.66102 19.1754 -0.285189 -0.156649 -0.411824
5 1 As 6.11061 3.16248 18.8467 -0.602733 -0.536399 -0.0206479
6 1 As 1.80794 8.85439 18.6412 0.706569 0.0932524 1.3572
7 1 As 2.80503 1.91573 11.1684 -0.272691 -0.20597 -1.16062
8 1 As 7.35204 1.20014 14.1437 1.16786 0.48955 -0.661393
9 2 F 3.69613 0.694953 10.3014 -0.160981 0.208121 0.254034
10 2 F 3.68446 0.570344 0.816065 0 0 0
11 2 F 9.51104 0.570344 0.816065 0 0 0
12 2 F 0.771166 5.61631 0.816065 0 0 0
13 2 F 6.59775 5.61631 0.816065 0 0 0
14 2 F 9.05274 1.04031 14.4697 -0.973097 0.00473658 -0.331331
15 2 F 6.70536 0.668409 12.624 -0.0907618 -0.3063 0.13611
16 2 F 8.50133 5.00348 20.1841 0.684471 -0.0038992 -0.336833
17 2 F 10.1169 7.24124 19.6951 0.232838 0.312503 0.128221
18 2 F 1.75762 0.757362 11.9088 0.0740238 0.0200944 0.114751
19 2 F 8.61528 6.20361 18.0271 -0.463791 0.004354 -0.0159286
20 2 F 11.0214 4.97869 20.1834 -0.169334 -0.00301235 0.0146641
21 2 F 11.2037 6.32004 2.80035 0 0 0
22 2 F 6.40269 1.89012 15.3681 -0.128767 0.305509 0.23104
23 2 F 1.43562 2.46466 10.2101 0.362552 -0.0830417 0.366484
24 2 F 3.51589 2.34527 12.6413 0.118558 0.0411777 0.535611
25 2 F 3.69673 3.19693 10.3724 0.163213 0.00678972 -0.0351501
26 2 F 10.5857 4.96155 17.7761 0.263864 -0.111329 0.565187
27 2 F 10.7317 1.27407 2.80035 0 0 0
28 2 F 8.2904 1.27407 2.80035 0 0 0
29 2 F 11.1128 3.08205 5.43718 0.424571 0.109105 0.483644
30 2 F 3.69749 7.34914 7.41991 0.0259204 -0.0821546 0.15057
31 2 F 9.68688 7.11738 7.36705 -0.137137 0.62099 -0.443376
32 2 F 0.777316 2.22706 7.39063 -0.0839035 0.672073 -0.609691
33 2 F 6.71573 2.17984 7.31438 -0.175169 -0.0792581 0.220955
34 2 F 11.2046 7.72902 0.816065 0 0 0
35 2 F 5.37798 7.72902 0.816065 0 0 0
36 2 F 8.29127 2.68305 0.816065 0 0 0
37 2 F 2.46469 2.68305 0.816065 0 0 0
38 2 F 7.8184 6.32004 2.80035 0 0 0
39 2 F 1.99181 6.32004 2.80035 0 0 0
40 2 F 4.9051 1.27407 2.80035 0 0 0
41 2 F 4.8635 7.90522 5.39543 -0.209172 0.197875 0.112875
42 2 F 10.5809 7.93021 5.22714 -0.00769488 0.277318 0.624549
43 2 F 1.90239 2.88442 5.35581 -0.169244 0.100779 -0.0541701
44 2 F 7.83561 2.96451 5.38785 0.294944 -0.205476 -0.408125
45 2 F 2.47752 9.46894 7.41958 0.524948 -0.253099 -0.523482
46 2 F 8.56266 9.31974 7.68647 0.15417 -0.26181 -0.108081
47 2 F 5.38358 4.27319 7.35827 -0.0195145 0.232137 0.0772971
48 2 F 11.3479 4.43909 7.50988 0.237747 -0.0901106 -0.393592
49 2 F 2.46381 1.27407 2.80035 0 0 0
50 2 F 5.37711 6.32004 2.80035 0 0 0
51 2 F 7.01276 -0.366429 14.8141 0.0681446 -0.584978 -0.03568
52 2 F 5.32689 2.48342 17.4674 -0.445541 -0.0478274 0.195146
53 2 F 5.37436 2.87732 5.46507 -0.0614253 -0.190826 -0.39833
54 2 F 5.53647 8.21045 10.1726 0.0978847 -0.250155 -0.132849
55 2 F 10.1999 8.20842 16.7583 -0.696952 -0.350703 1.28362
56 2 F 1.25168 3.83727 16.7281 -0.781846 -0.626744 -0.263235
57 2 F 1.63821 3.3613 20.4194 0.740712 0.306521 -0.109074
58 2 F 2.74142 1.34736 18.7772 -0.313356 0.0954709 -0.193977
59 2 F 10.1072 0.808805 16.8154 0.584924 0.511538 0.32808
60 2 F 4.59127 9.00398 16.047 0.0443128 0.0188088 0.351858
61 2 F 3.20159 4.85858 17.4746 0.52364 -0.053919 -0.664136
62 2 F 0.0171118 8.10232 14.9765 0.722959 0.00817831 -0.511305
63 2 F 11.0041 2.30668 19.4454 0.86408 0.0313101 0.945408
64 2 F 3.81401 1.00641 15.3246 -0.139498 0.832313 0.284417
65 2 F 3.59095 6.54732 20.7895 0.633777 0.248791 0.985275
66 2 F 6.76584 5.10544 15.0955 0.462355 0.504163 -0.395698
67 2 F 9.33887 4.41219 14.7788 0.895847 -0.183886 -0.0719251
68 2 F 7.39971 -0.223662 18.1323 0.0682709 0.618419 0.279169
69 2 F 9.41419 0.411816 19.9976 -0.9107 -0.733227 0.110099
70 2 F 3.79221 3.74637 15.0093 -0.31827 -0.747644 0.897721
71 2 F 0.577557 1.46041 14.9047 -0.123985 -0.595641 -1.07031
72 2 F 5.71561 7.24235 14.8657 0.296319 0.381757 -1.14591
73 2 F 5.03074 5.43403 12.184 0.0919041 -0.101887 0.00839734
74 2 F 7.57325 2.7602 13.3914 0.0627794 -0.121166 0.158901
75 2 F 5.44755 5.73655 9.86463 0.113573 0.66286 -0.00936533
76 2 F 6.89584 7.11318 12.0769 0.244726 0.075553 -0.292024
77 2 F 7.09646 2.41362 20.0373 -0.340305 -0.123158 0.229393
78 2 F 5.84162 4.81748 19.0979 -0.0795856 0.0940369 0.07526
79 2 F 4.62626 2.66837 19.7464 0.648687 0.576284 -0.0261879
80 2 F 7.49554 3.31231 17.8431 0.67364 0.430004 -0.272368
81 2 F 1.43365 7.17918 18.7425 -0.415339 -0.360981 -0.178285
82 2 F 3.50363 8.87262 18.9748 -0.34572 0.213813 0.00809671
83 2 F 0.6578 10.0648 18.1961 -0.243927 -0.196809 0.426677
84 2 F 1.40549 9.0372 20.3576 0.0766017 0.263643 -0.918193
85 2 F 2.15797 8.74009 16.9548 -0.23801 -0.350105 -0.767777
86 2 F -0.318463 6.1692 11.9636 0.428606 0.164091 -0.066826
87 2 F 2.36513 6.08215 10.8363 -0.0228044 0.0292741 -0.423034
88 2 F 2.13282 6.64103 13.8058 -0.449198 -0.492231 -0.602018
89 2 F 1.5353 4.65188 12.624 -0.0311871 -1.36427 0.013584
90 2 F 1.44095 8.03735 12.042 -0.494242 -0.410865 -0.59678
91 2 F 8.67654 1.96226 10.7372 0.590472 -0.0505258 0.154777
92 2 F 11.2074 2.67473 12.2735 -0.0697733 0.115341 -0.0990094
93 2 F 10.9638 0.923833 9.62822 0.0450885 0.160051 0.238191
94 2 F 10.5832 3.36019 10.0835 0.0473902 0.757163 -0.85149
95 2 F 10.335 0.492191 11.9921 -0.212982 0.0340396 -0.457192
96 2 F 4.28588 7.69539 12.2371 0.0446161 0.314243 -0.350043
97 2 F 8.18255 8.06671 5.63481 0.0241438 -0.309144 -0.0431339
98 2 F 6.0611 7.28006 17.5729 0.0524398 -0.0569033 -0.83729
99 2 F 3.68446 3.38829 2.80035 0 0 0
100 2 F 2.41344 7.95033 5.47903 -0.12301 0.0051026 -0.116165
101 2 F 6.57678 4.99611 5.37992 0.263413 0.307487 -0.0125795
102 2 F 0.828014 5.13488 5.41446 -0.0524847 -0.483452 0.512722
103 2 F 9.40794 10.104 5.53044 0.573049 -0.372511 0.364986
104 2 F 7.79042 4.33013 7.40347 0.339398 0.284263 -0.059483
105 2 F 2.18308 4.25612 7.28155 -0.489342 0.252348 0.0268424
106 2 F 10.9802 9.21537 7.31021 -0.366279 0.0101686 -0.567989
107 2 F 3.61525 10.0309 5.30093 0.0492655 0.121204 0.202427
108 2 F 7.81752 7.72902 0.816065 0 0 0
109 2 F 1.99093 7.72902 0.816065 0 0 0
110 2 F 10.7308 2.68305 0.816065 0 0 0
111 2 F 4.90423 2.68305 0.816065 0 0 0
112 2 F 6.59775 8.43426 2.80035 0 0 0
113 2 F 0.771166 8.43426 2.80035 0 0 0
114 2 F 4.96855 9.4286 7.24834 -0.311542 0.102723 -0.0578036
115 2 F 9.51104 3.38829 2.80035 0 0 0
116 3 H 10.0096 5.85338 4.41973 -0.374494 -0.251771 -0.293262
117 3 H 10.4999 8.66504 15.9959 0.168042 0.122182 -0.476258
118 3 H 4.56591 5.61833 4.5142 0.318508 0.06698 -0.324492
119 3 H 0.718805 4.24181 17.3981 -0.100187 0.0992747 -0.134686
120 3 H 2.71897 1.73658 7.32174 -0.686509 0.0593835 -0.506641
121 3 H 2.49795 3.57251 20.0534 -0.827473 -0.359112 0.343195
122 3 H 3.27965 2.10335 18.6041 0.324981 -0.224093 -0.0244299
123 3 H 3.92584 1.13055 8.26372 -0.062889 0.741142 -0.301004
124 3 H 6.1481 7.27778 6.85828 -0.81314 0.507538 -1.42916
125 3 H 7.23199 0.966625 5.23904 -0.379095 -0.442913 -0.114319
126 3 H 10.2941 2.58905 8.12465 0.155751 -0.161129 0.000635228
127 3 H 3.68446 8.70677 1.93343 0 0 0
128 3 H 7.35275 6.38594 7.49763 -0.325372 -0.149865 0.228778
129 3 H 1.6121 9.90325 0 0 0 0
130 3 H 7.43869 9.90325 0 0 0 0
131 3 H 4.52539 4.85728 0 0 0 0
132 3 H 10.352 4.85728 0 0 0 0
133 3 H 10.9249 1.24604 17.0309 -0.784599 -0.399296 -0.027159
134 3 H 9.51104 8.70677 1.93343 0 0 0
135 3 H 0.771166 3.6608 1.93343 0 0 0
136 3 H 6.59775 3.6608 1.93343 0 0 0
137 3 H 8.52725 5.43516 5.20825 -0.397217 0.0255313 -0.241613
138 3 H 0.64175 6.49506 8.71259 0.336549 0.362362 -0.812193
139 3 H 0.640596 6.80432 7.01794 0.327147 -0.404705 0.613794
140 3 H 5.94165 6.72436 8.37827 -0.0673428 -0.10483 0.386401
141 3 H 9.80657 2.01837 6.663 0.519944 -0.346049 -1.04641
142 3 H 8.67333 8.22312 3.30385 0 0 0
143 3 H 5.84005 7.89332 14.1702 -0.155633 -0.16817 0.657609
144 3 H 5.76004 3.17715 3.30385 0 0 0
145 3 H 0.718495 1.81762 15.7389 0.433851 0.791806 0.9073
146 3 H 11.5866 3.17715 3.30385 0 0 0
147 3 H 3.801 2.82949 15.3409 0.120012 0.498627 -0.651937
148 3 H 3.63451 2.8214 8.15563 -0.129655 0.320817 0.500402
149 3 H 9.86898 1.21215 19.8285 0.759258 0.642065 -0.242268
150 3 H 8.72133 2.70861 7.61286 -0.130601 -0.312849 0.412781
151 3 H 7.96309 0.326729 18.6742 0.0554071 -0.698553 -0.198378
152 3 H 2.08077 6.9837 7.89016 0.972007 -0.340097 -0.0743762
153 3 H 5.24629 8.5169 16.5428 0.145049 -0.294614 0.44016
154 3 H 8.5014 4.78847 14.936 -1.04818 0.177109 0.179988
155 3 H 6.51989 5.93 14.6267 -0.119437 -0.908686 0.68835
156 3 H 3.68446 9.67408 3.30385 0 0 0
157 3 H 3.07815 6.22775 20.0997 -0.67518 -0.319108 -1.05138
158 3 H 9.3726 1.16466 8.01417 -0.217096 -0.447185 0.151855
159 3 H 4.24444 0.407414 15.9537 -0.221544 -0.0385834 -0.512533
160 3 H 9.51104 9.67408 3.30385 0 0 0
161 3 H 11.7251 2.34848 20.1059 -0.687637 0.242135 -1.22482
162 3 H 12.5059 8.04087 8.01315 -0.290589 0.786679 0.400414
163 3 H 0.604037 7.95118 15.7078 -0.00267535 0.139212 -0.234253
164 3 H 4.37581 2.0678 6.92818 -0.397473 -0.16921 -0.234036
165 3 H 2.99546 4.52779 16.5732 0.351314 0.291825 1.02036
166 3 H 7.14433 7.95077 8.00668 -0.633533 -0.492864 -0.13514
167 3 H 0.771166 4.62811 3.30385 0 0 0
168 3 H 9.51104 5.34279 1.36921 0 0 0
169 3 H 5.75681 9.90325 0 0 0 0
170 3 H 6.41933 6.73411 16.8731 -0.210709 0.279113 0.641011
171 3 H 6.59775 4.62811 3.30385 0 0 0
172 3 H 1.60888 3.17715 3.30385 0 0 0
173 3 H 10.3488 8.22312 3.30385 0 0 0
174 3 H 4.52217 8.22312 3.30385 0 0 0
175 3 H 7.02563 9.42845 4.8702 -0.0522447 -0.0822885 -0.222212
176 3 H 1.19856 9.49063 4.98575 0.842828 -0.742393 -0.212027
177 3 H 3.50475 4.41427 4.9646 -0.282343 -1.14872 -0.182066
178 3 H 3.68446 6.31382 0 0 0 0
179 3 H 9.51104 6.31382 0 0 0 0
180 3 H 0.771166 1.26785 0 0 0 0
181 3 H 6.59775 1.26785 0 0 0 0
182 3 H 5.8204 0.525204 4.39496 0.691099 -0.43252 0.511771
183 3 H 7.43547 3.17715 3.30385 0 0 0
184 3 H 3.05835 5.98048 5.05765 -0.674133 0.549156 0.0764107
185 3 H 11.5834 9.90325 0 0 0 0
186 3 H 11.7529 0.397433 4.36003 -0.322743 0.662071 -0.238918
187 3 H 2.84352 4.85728 0 0 0 0
188 3 H 8.67011 4.85728 0 0 0 0
189 3 H 0.771166 0.296822 1.36921 0 0 0
190 3 H 6.59775 0.296822 1.36921 0 0 0
191 3 H 1.43957 1.05964 5.24866 -0.378643 -0.169351 -0.426436
192 3 H 0.261726 0.14475 6.00993 -0.633444 0.157469 0.686344
193 3 H 6.05226 0.0375872 6.01361 -0.0183588 0.0744324 -0.112484
194 3 H 4.20657 5.37625 6.10441 0.100223 -0.127184 0.596568
195 3 H 9.99068 5.6158 6.00909 -0.560303 -0.0507898 -0.0321668
196 3 H 2.84674 8.22312 3.30385 0 0 0
197 3 H 3.68446 5.34279 1.36921 0 0 0
198 3 H 9.80025 4.29604 5.07061 -0.0929241 -0.320554 -0.335702
199 4 N 3.83163 5.33976 5.16229 0.204034 0.472249 -0.224055
200 4 N 6.52893 0.203248 5.10651 -0.0705532 1.10296 -0.0925085
201 4 N 0.749147 0.286221 5.13401 0.400149 0.200857 0.0923254
202 4 N 9.54894 2.08621 7.62827 -0.354207 1.21009 0.439355
203 4 N 1.06878 7.05332 7.93784 -1.52221 -0.58787 -0.163022
204 4 N 3.6505 1.93785 7.6558 1.32203 -0.84453 0.570221
205 4 N 6.59775 3.6608 2.95976 0 0 0
206 4 N 0.771166 3.6608 2.95976 0 0 0
207 4 N 6.61769 7.08456 7.7106 2.03212 0.233974 0.712945
208 4 N 9.53106 5.28309 5.13525 1.38186 0.752882 0.803366
209 4 N 3.68446 5.34279 0.342545 0 0 0
210 4 N 6.59775 0.296822 0.342545 0 0 0
211 4 N 9.51104 5.34279 0.342545 0 0 0
212 4 N 3.68446 8.70677 2.95976 0 0 0
213 4 N 0.771166 0.296822 0.342545 0 0 0
214 4 N 9.51104 8.70677 2.95976 0 0 0
215 5 Si 6.63115 3.60625 6.38735 -0.789958 -0.162802 0.686801
216 5 Si 0.797853 3.71238 6.44086 0.346425 -0.479553 0.0262985
217 5 Si 9.58043 8.62696 6.46931 -0.0853986 -0.0340982 0.31405
218 5 Si 6.59775 7.02478 1.80169 0 0 0
219 5 Si 0.771166 7.02478 1.80169 0 0 0
220 5 Si 9.51104 1.97881 1.80169 0 0 0
221 5 Si 3.68446 1.97881 1.80169 0 0 0
222 5 Si 3.65671 8.72103 6.37453 0.197862 -0.0581626 0.582744
ITEM: TIMESTEP
200
ITEM: NUMBER OF ATOMS
222
ITEM: BOX BOUNDS xy xz yz pp pp ff
0.0000000000000000e+00 1.1653169955469000e+01 0.0000000000000000e+00
0.0000000000000000e+00 1.0091941216054000e+01 0.0000000000000000e+00
0.0000000000000000e+00 4.0182547999999997e+01 0.0000000000000000e+00
ITEM: ATOMS id type element xu yu zu fx fy fz
1 1 As 10.4715 1.86375 10.7508 -0.310422 -0.759066 1.88453
2 1 As 5.52364 6.96668 11.2336 0.372033 -0.0847541 0.838024
3 1 As 1.11362 6.37544 12.2492 -0.636242 1.77991 0.798
4 1 As 9.77433 5.70509 19.3556 0.153969 0.120415 0.201087
5 1 As 6.17216 3.28748 19.083 -1.29042 -1.6898 -0.174217
6 1 As 1.81455 8.71868 18.7257 2.23077 1.6541 0.952572
7 1 As 2.95324 1.88508 11.1434 -0.490037 0.320413 -1.40803
8 1 As 7.16077 0.862011 13.9424 0.585979 -1.23383 -0.29004
9 2 F 3.48872 0.529676 10.2244 0.1427 0.306945 0.25136
10 2 F 3.68446 0.570344 0.816065 0 0 0
11 2 F 9.51104 0.570344 0.816065 0 0 0
12 2 F 0.771166 5.61631 0.816065 0 0 0
13 2 F 6.59775 5.61631 0.816065 0 0 0
14 2 F 8.88164 0.722708 14.0897 -0.240554 0.457494 1.897e-05
15 2 F 6.37165 0.316193 12.4767 0.207565 0.205125 0.567978
16 2 F 8.81781 4.88642 20.5556 0.100284 -0.00989238 -0.146849
17 2 F 10.0853 7.3866 19.5171 0.090608 -0.0997418 0.234769
18 2 F 1.83325 0.980622 12.0933 -0.116536 -0.0869432 0.452199
19 2 F 8.33268 6.06717 18.5021 -0.732701 0.0749604 -0.313505
20 2 F 11.1879 5.3458 20.3079 0.0954195 -0.0882695 -0.122713
21 2 F 11.2037 6.32004 2.80035 0 0 0
22 2 F 6.12744 1.38648 15.2186 -0.150163 0.408148 -0.0490851
23 2 F 1.56588 2.48825 10.2041 0.573266 -0.205993 0.583535
24 2 F 3.91051 2.20925 12.536 0.00614297 0.0126308 0.223607
25 2 F 3.8637 3.09672 10.2612 0.17931 -0.20307 0.216524
26 2 F 10.3856 4.92758 17.9484 0.258478 -0.116424 0.348269
27 2 F 10.7317 1.27407 2.80035 0 0 0
28 2 F 8.2904 1.27407 2.80035 0 0 0
29 2 F 11.2498 3.07014 5.38551 0.194963 -0.168093 0.160592
30 2 F 3.80528 7.41057 7.56878 0.0252149 0.204873 -0.46566
31 2 F 9.79633 7.09212 7.29304 -0.43217 0.288059 -0.123789
32 2 F 0.935805 2.19152 7.27585 -0.39965 0.324074 -0.0928768
33 2 F 6.54019 2.34362 7.54513 -0.272613 -0.0101816 -0.386079
34 2 F 11.2046 7.72902 0.816065 0 0 0
35 2 F 5.37798 7.72902 0.816065 0 0 0
36 2 F 8.29127 2.68305 0.816065 0 0 0
37 2 F 2.46469 2.68305 0.816065 0 0 0
38 2 F 7.8184 6.32004 2.80035 0 0 0
39 2 F 1.99181 6.32004 2.80035 0 0 0
40 2 F 4.9051 1.27407 2.80035 0 0 0
41 2 F 4.9317 7.9969 5.47393 -0.239168 0.0463759 0.100151
42 2 F 10.8152 8.0097 5.31117 -0.315505 0.169948 0.0460989
43 2 F 2.09558 3.00236 5.36008 -0.152412 -0.0709983 0.140014
44 2 F 7.82035 2.80913 5.54167 -0.0340041 -0.00911977 -0.38263
45 2 F 2.43767 9.39605 7.42335 0.394344 -0.0671027 -0.163597
46 2 F 8.59905 9.21854 7.69413 0.0424646 -0.238442 -0.59071
47 2 F 5.29109 4.4408 7.24672 0.418614 -0.225468 -0.211315
48 2 F 11.3133 4.34459 7.41298 0.326904 -0.0858276 -0.148514
49 2 F 2.46381 1.27407 2.80035 0 0 0
50 2 F 5.37711 6.32004 2.80035 0 0 0
51 2 F 7.11113 -0.734364 14.6206 -0.27693 -0.0747082 -0.0409178
52 2 F 5.22215 2.54798 17.7532 0.0657763 0.136746 0.220068
53 2 F 5.41029 2.92892 5.36983 0.0568093 -0.205213 0.149525
54 2 F 5.60093 8.20243 9.99165 0.497029 -0.652958 -0.256467
55 2 F 8.99112 8.19277 17.1324 0.676165 0.0806399 -0.52437
56 2 F 0.990595 2.8245 17.0281 -0.0227882 0.0911736 0.286503
57 2 F 1.46522 3.44278 20.344 0.270936 0.083021 0.0535244
58 2 F 2.90103 1.31644 18.6402 0.0073747 -0.164895 -0.257929
59 2 F 10.0803 1.13722 16.6987 -0.106572 0.315915 -0.464962
60 2 F 4.56817 9.32634 16.3449 -0.355706 0.0420945 -0.804442
61 2 F 4.28311 5.39071 17.1703 -0.454231 0.297763 0.617716
62 2 F -0.0240445 8.84276 14.4788 -0.13782 -0.00387743 0.364628
63 2 F 10.901 2.28545 19.5676 0.0369767 0.073997 -0.14685
64 2 F 2.84464 1.42687 15.4258 0.472802 -0.659847 -0.177167
65 2 F 3.83105 6.40824 20.9117 0.688076 -0.345547 1.16829
66 2 F 7.2267 4.89231 14.7545 -0.241118 0.442015 -0.0138823
67 2 F 9.47455 5.9503 15.3848 0.684886 0.706154 0.297217
68 2 F 7.46338 -0.829086 18.4134 -0.77279 0.397281 0.744351
69 2 F 9.94443 -0.115664 20.13 -0.45906 -0.254473 0.0409944
70 2 F 4.73331 4.08467 15.2266 -0.169208 -1.10523 -0.993444
71 2 F 0.228959 1.94951 14.458 -1.06711 0.348064 0.460503
72 2 F 6.01396 7.11036 14.6355 -0.780534 0.481418 0.290881
73 2 F 4.89246 5.75727 12.2935 0.049477 -0.548884 0.161108
74 2 F 7.33161 2.44757 13.3143 -0.137481 0.478784 -0.0959524
75 2 F 6.05721 5.65938 10.2055 -0.20793 0.604377 -0.538312
76 2 F 7.02804 7.2522 12.0317 -0.578783 0.266737 -0.294242
77 2 F 7.06999 1.97693 19.7866 -0.375365 0.447448 0.511205
78 2 F 6.08204 4.94947 19.4938 0.0611905 -0.339403 0.129673
79 2 F 4.79542 2.92249 20.0213 -0.849289 0.10216 1.20934
80 2 F 7.42053 3.4623 18.0106 1.95604 0.950419 -1.79117
81 2 F 1.19609 7.19196 18.9805 -0.456803 -1.40031 0.23563
82 2 F 3.57086 8.4866 18.7095 -1.16913 0.0745178 -0.219596
83 2 F 0.43557 9.74203 18.5878 -0.255389 0.378938 0.336808
84 2 F 2.05829 9.21857 20.421 -0.648068 -0.252874 -1.0801
85 2 F 1.82512 8.73829 16.9915 0.192765 -0.14299 -0.18177
86 2 F -0.612643 6.12943 12.1721 0.925826 0.258202 -0.118169
87 2 F 2.04426 6.12318 10.8183 0.118494 -0.0192105 -0.61762
88 2 F 1.89832 6.85622 13.6973 0.0741418 -0.16153 0.224296
89 2 F 1.40045 4.75499 12.6744 0.0677253 -1.32662 0.173218
90 2 F 1.02518 8.09384 11.8617 -0.377861 -0.595401 -0.409114
91 2 F 8.76077 2.11187 10.7295 0.0420093 -0.304078 -0.254691
92 2 F 11.1211 2.85503 11.986 0.196355 0.3028 -0.106381
93 2 F 11.1934 0.753866 9.64265 -0.137005 -0.0816838 -0.0950251