LAMMPS data file via write_data, version 2 Aug 2023, timestep = 10000, units = metal

222 atoms
5 atom types

0 11.653169955469 xlo xhi
0 10.091941216054 ylo yhi
0 40.182548 zlo zhi
0 0 0 xy xz yz

Masses

1 74.921595
2 18.998403163
3 1.008
4 14.007
5 28.085

Atoms # atomic

10 2 3.6844580000000002 0.570344 0.816065 0 0 0
37 2 2.464689 2.683046 0.816065 0 0 0
49 2 2.463813 1.274072 2.800346 0 0 0
99 2 3.6844580000000002 3.3882919999999994 2.800346 0 0 0
135 3 0.771166 3.660801999999999 1.93343 0 0 0
167 3 0.771166 4.628112 3.3038510000000003 0 0 0
172 3 1.60888 3.177147 3.3038510000000003 0 0 0
180 3 0.771166 1.2678499999999997 0 0 0 0
187 3 2.843523 4.857278 0 0 0 0
189 3 0.771166 0.296822 1.369212 0 0 0
206 4 0.771166 3.660801999999999 2.959756 0 0 0
213 4 0.771166 0.296822 0.342545 0 0 0
221 5 3.6844580000000002 1.9788119999999996 1.8016860000000001 0 0 0
40 2 4.905104 1.274072 2.800346 0 0 0
111 2 4.904228 2.683046 0.816065 0 0 0
131 3 4.525393 4.857278 0 0 0 0
136 3 6.597751 3.660801999999999 1.93343 0 0 0
144 3 5.760036 3.177147 3.3038510000000003 0 0 0
171 3 6.597751 4.628112 3.3038510000000003 0 0 0
181 3 6.597751 1.2678499999999997 0 0 0 0
183 3 7.435465000000001 3.177147 3.3038510000000003 0 0 0
190 3 6.597751 0.296822 1.369212 0 0 0
205 4 6.597751 3.660801999999999 2.959756 0 0 0
210 4 6.597751 0.296822 0.342545 0 0 0
11 2 9.511043 0.570344 0.816065 0 0 0
27 2 10.731689 1.274072 2.800346 0 0 0
28 2 8.290398 1.274072 2.800346 0 0 0
36 2 8.291274000000001 2.683046 0.816065 0 0 0
110 2 10.730813 2.683046 0.816065 0 0 0
115 2 9.511043 3.3882919999999994 2.800346 0 0 0
132 3 10.351978 4.857278 0 0 0 0
146 3 11.586621000000001 3.177147 3.3038510000000003 0 0 0
188 3 8.670108 4.857278 0 0 0 0
220 5 9.511043 1.9788119999999996 1.8016860000000001 0 0 0
12 2 0.771166 5.616314 0.816065 0 0 0
39 2 1.991811 6.320042999999999 2.800346 0 0 0
109 2 1.990935 7.729017 0.816065 0 0 0
113 2 0.771166 8.434263 2.800346 0 0 0
127 3 3.6844580000000002 8.706773 1.93343 0 0 0
129 3 1.612101 9.903249 0 0 0 0
156 3 3.6844580000000002 9.674083 3.3038510000000003 0 0 0
178 3 3.6844580000000002 6.313821 0 0 0 0
196 3 2.846743 8.223118 3.3038510000000003 0 0 0
197 3 3.6844580000000002 5.342792 1.369212 0 0 0
209 4 3.6844580000000002 5.342792 0.342545 0 0 0
212 4 3.6844580000000002 8.706773 2.959756 0 0 0
219 5 0.771166 7.024783 1.8016860000000001 0 0 0
13 2 6.597751 5.616314 0.816065 0 0 0
35 2 5.377981000000001 7.729017 0.816065 0 0 0
50 2 5.377105 6.320042999999999 2.800346 0 0 0
112 2 6.597751 8.434263 2.800346 0 0 0
130 3 7.438686 9.903249 0 0 0 0
169 3 5.756815 9.903249 0 0 0 0
174 3 4.522173 8.223118 3.3038510000000003 0 0 0
218 5 6.597751 7.024783 1.8016860000000001 0 0 0
21 2 11.20369 6.320042999999999 2.800346 0 0 0
34 2 11.204566000000002 7.729017 0.816065 0 0 0
38 2 7.818396 6.320042999999999 2.800346 0 0 0
108 2 7.81752 7.729017 0.816065 0 0 0
134 3 9.511043 8.706773 1.93343 0 0 0
142 3 8.673328 8.223118 3.3038510000000003 0 0 0
160 3 9.511043 9.674083 3.3038510000000003 0 0 0
168 3 9.511043 5.342792 1.369212 0 0 0
173 3 10.348758 8.223118 3.3038510000000003 0 0 0
179 3 9.511043 6.313821 0 0 0 0
185 3 11.5834 9.903249 0 0 0 0
211 4 9.511043 5.342792 0.342545 0 0 0
214 4 9.511043 8.706773 2.959756 0 0 0
43 2 2.144837402022664 2.8464540039861332 5.533647126636683 0 0 0
201 4 0.8883743860536986 0.2219722301172517 5.08464673806012 0 0 0
216 5 0.8430120921913605 3.6075782194482673 6.391451068352862 0 0 0
177 3 4.305609207984896 4.150234439957537 5.352688344984521 0 0 0
186 3 0.37136570665623464 9.550893884442239 4.568521416808286 1 -1 0
102 2 0.8863657527430151 4.993676146900271 5.350888467430109 0 0 0
192 3 1.1207878389357933 9.910531129779296 5.9947186808527055 0 -1 0
194 3 4.313788802727568 5.733356153572812 5.917932053639764 0 0 0
53 2 5.958338127563633 2.928319494394896 5.4644296729183095 0 0 0
182 3 7.232343453090812 0.546551789501181 4.665697074301822 0 0 0
215 5 6.63464387252663 3.2681994968217336 6.96586190266263 0 0 0
193 3 6.905829132389299 0.5146684726588798 6.288050793407352 0 0 0
44 2 8.128905277154113 2.9781643791089385 6.329637331437853 0 0 0
101 2 6.783320594526181 4.948768891414155 6.56453095950116 0 0 0
175 3 5.679354306375303 0.16511933563382233 5.198535580552376 0 1 0
191 3 0.2990431177208356 1.0629214276264474 5.205108213308882 0 0 0
29 2 11.305307624645282 2.7588424382993644 5.422090160610698 0 0 0
198 3 9.66160688531976 5.620086647775679 6.18946120270591 0 0 0
107 2 3.5690705104513714 9.93859039596404 5.371332984568636 0 0 0
184 3 2.8870821027477724 5.062814604163771 5.382275729165917 0 0 0
100 2 2.489842725422502 7.857949514158812 5.5051941674913385 0 0 0
176 3 1.8026440619155415 0.4063430396085557 4.656697949321825 0 1 0
199 4 3.9106360236313935 5.10224828657457 5.205420598310544 0 0 0
222 5 3.70152074606639 8.502453651579938 6.41831981848226 0 0 0
45 2 2.487137152202377 9.24387734005902 7.364217047992128 0 0 0
125 3 6.950962777502417 9.20045235949226 5.408871150084486 0 -1 0
200 4 6.673303813962232 0.07917262043479602 5.387821463279744 0 0 0
118 3 4.127075855474015 5.4485322842948785 4.2573223144440036 0 0 0
41 2 4.937291294174231 7.898564736174022 5.343900389834131 0 0 0
195 3 9.698758555871168 4.065909094730708 5.441824483922304 0 0 0
103 2 9.368780504321188 9.838980002429004 5.58852497917097 0 0 0
208 4 9.411224546647698 5.044459705514932 5.358421815502761 0 0 0
42 2 10.881945655076782 7.940759274785999 5.550754735691609 0 0 0
97 2 8.435426613113021 7.73187317557701 5.39160695038489 0 0 0
116 3 8.374267993581388 5.068907662733325 5.265781102001544 0 0 0
137 3 9.87648221005976 5.4554360412840746 4.543663656680878 0 0 0
217 5 9.58621449333841 8.454969614870468 6.5220162152870165 0 0 0
105 2 1.9294637526056748 4.412362636493611 7.404860536142667 0 0 0
164 3 2.7137389866099957 1.665844714935039 7.857421489882102 0 0 0
32 2 0.9500227152038302 2.219807609270519 7.511377789937022 0 0 0
120 3 3.5450910398069904 1.2145682463446281 9.284281085755614 0 0 0
204 4 3.657804291333913 1.512233277645236 8.294925740506294 0 0 0
123 3 4.174039409443383 0.7891805117512377 7.7661402847368395 0 0 0
24 2 1.7706480702519367 2.221968507531216 10.433681508166533 0 0 0
47 2 5.136333613123516 3.6051257901700917 7.588589396381317 0 0 0
148 3 4.184089607068848 2.4497844468434833 8.33436384646394 0 0 0
33 2 6.623363333432379 1.6941210022655235 7.5240941728353326 0 0 0
104 2 7.492614825420975 3.6477347294338207 8.66089962405492 0 0 0
91 2 5.817671078637345 2.512637106540637 10.23766065399459 0 0 0
1 1 7.136093016097994 3.5773290561522852 10.613371987402513 0 0 0
93 2 8.234684713251914 2.182697120158783 10.665044959717438 0 0 0
141 3 9.398336149560507 2.182605354037304 7.494418366505684 0 0 0
48 2 11.220392407458114 4.309379053311385 7.270784372472797 0 0 0
126 3 10.676257665201929 2.355818464648188 8.547619421019304 0 0 0
150 3 9.298993719457645 1.4948923564017267 8.961936135675918 0 0 0
158 3 10.45566921978957 0.8726094645637748 7.8496561425035525 0 0 0
202 4 9.958371226295892 1.722143252699995 8.232515077532058 0 0 0
18 2 11.391814226268117 3.3321333190822284 10.17946330171887 -1 0 0
94 2 8.565290745961425 4.610148410569647 10.703570344253864 0 0 0
152 3 1.7604429210620953 7.592346167031467 8.152493129110937 0 0 0
138 3 1.0012582297348191 6.625709282738511 9.324176656973977 0 0 0
203 4 1.0031728523038235 6.933049230915199 8.332388880523279 0 0 0
30 2 3.839790386557207 7.176116402980954 7.45414531148894 0 0 0
162 3 0.05907243354202909 7.332859509803049 8.040960653140015 1 0 0
96 2 2.825431498792821 9.386977316007107 9.951735378787761 0 0 0
75 2 2.7770440083840158 6.841390630382485 10.452997191885364 0 0 0
92 2 6.182603243810854 5.018267193836618 10.342587043087503 0 0 0
54 2 4.916094962195432 8.447944424780108 10.39436088080193 0 0 0
128 3 6.540335428773268 6.937134902266112 9.551282940968894 0 0 0
114 2 4.953782437858443 9.306084397705405 7.262841667719999 0 0 0
124 3 5.641466803595024 7.672144051232319 8.297245432912352 0 0 0
140 3 7.364615974730355 7.763674384528455 8.28953241099405 0 0 0
166 3 6.564773707583237 6.324345941755029 7.963258879794756 0 0 0
207 4 6.5158407443273925 7.167469440471157 8.545961481573826 0 0 0
139 3 1.140333479363896 6.069507628482564 7.791202530008827 0 0 0
31 2 9.770962569404128 6.9216112123637705 7.372071860211455 0 0 0
106 2 10.73243451947912 9.224748635062843 7.424395237026006 0 0 0
46 2 8.401380965690448 8.810007679575065 7.672225330426382 0 0 0
87 2 11.14912406259642 6.576209865746733 10.86530692344673 -1 0 0
89 2 10.394405280394302 8.855797557272302 10.444648185048425 -1 0 0
88 2 8.351630547247899 7.5297534608727545 11.017608429229515 -1 0 0
25 2 1.4480164190991203 1.7611322505455 12.856984789543091 0 0 0
51 2 4.024427449429117 2.2788902948488365 13.012297559722613 0 0 0
14 2 3.874185884743259 0.003963660170913271 12.133196646066128 0 0 0
9 2 0.8005596697604137 4.070549406018296 12.266961584199242 0 0 0
74 2 2.584271073358585 9.942462922630703 14.24613346054284 0 -1 0
95 2 6.835574385260869 3.680390672329076 12.312599707602873 0 0 0
8 1 3.9647891174568115 0.8077610370332441 13.90209080765517 0 0 0
15 2 5.395532256717604 10.065075298741732 14.206401989882417 0 -1 0
57 2 7.448085754471949 2.312884251264978 14.699531023399697 -1 0 0
7 1 0.5061081704152188 2.5591998822843762 11.573798133016497 0 0 0
23 2 10.839140148529745 1.5027141504687103 11.987058895695771 -1 0 0
70 2 9.607154561860382 3.146038901426361 14.037069923678827 -1 0 0
165 3 8.270468935513039 2.819297030910666 14.521492515716199 -1 0 0
73 2 1.9133185154450998 8.450265138917748 12.085722632429789 0 0 0
2 1 3.359467431430519 8.275776144900485 11.208056976892985 0 0 0
66 2 2.9859848500379247 5.8599444480453915 14.624025574606359 0 0 0
155 3 3.3564114242303753 6.5348725336184605 15.275070619180232 0 0 0
76 2 4.250107495851827 7.583985160450975 12.506308525114996 0 0 0
67 2 5.288190187844678 5.162831509950075 14.15353386064027 0 0 0
154 3 4.383744969639252 5.450265059719578 14.277013148521704 0 0 0
90 2 9.645127742851187 6.4019178042545795 12.743143763207822 -1 0 0
86 2 10.04426610065687 8.702316337789645 12.878998817450613 -1 0 0
3 1 9.930747232848313 7.599191956247544 11.589886298283686 -1 0 0
159 3 0.6457143787740868 2.91315595943545 15.274454077423655 0 0 0
60 2 2.0253253136451232 3.100870595898459 15.503642570194387 0 1 0
153 3 2.4170489346106114 3.1842687169711725 16.375667566365173 0 1 0
22 2 4.050687795078667 1.6232703171314973 15.382141882687772 0 0 0
119 3 5.996593140613642 3.6994623605565295 17.402448288666626 -1 0 0
121 3 7.051006268471199 2.615340281498772 16.122871648722004 -1 0 0
56 2 6.603506565104036 2.6634980827580343 17.005337965118613 -1 0 0
59 2 3.042454214238341 3.6233199498695736 17.733081366575124 0 0 0
71 2 5.30659094192349 4.442895076436773 17.62034122185569 -1 0 0
145 3 4.078504202523643 3.94517756956094 17.729719009659565 -1 0 0
69 2 8.174871482692506 6.522721547235533 19.480385376186536 0 -1 0
147 3 10.258446913835185 2.778879961641907 14.688714602150231 -1 0 0
64 2 11.398092665171971 2.5286245384842916 15.357032442275186 -1 0 0
84 2 2.9018346731344096 10.004017208875716 17.635177132529513 0 0 0
72 2 3.67697734822532 7.324927669253165 16.36934465897595 0 0 0
143 3 3.795635245183241 6.880490257138272 17.317590616407948 0 0 0
170 3 4.679495226073732 6.2327683495772455 18.93681303897632 0 0 0
98 2 3.7902478672138336 6.2778590202678615 18.5547895028355 0 0 0
163 3 6.0852497114481245 6.215573080473062 13.601123705455889 -1 0 0
63 2 7.659743578035505 8.00505789238336 17.77517871368476 0 -1 0
62 2 6.9294585050295 6.615722885940986 13.425755829366775 -1 0 0
117 3 7.447576080170468 7.089638818622551 14.65056691902127 0 0 0
55 2 7.659330001635038 7.599888466393383 15.47910361962099 0 0 0
161 3 7.789110939889515 7.855676372252107 16.814270008856205 0 -1 0
149 3 8.200629848807557 7.193338418253578 18.77372088195331 0 -1 0
81 2 0.7275922375376542 8.463731691566936 17.78631439029304 0 0 0
82 2 0.791272085070898 1.0258437497413366 17.58127566345648 0 1 0
58 2 2.409175426682912 1.771614569455643 19.73908775661517 0 0 0
6 1 1.4394630334422616 9.84896369605064 18.589075030992884 0 0 0
85 2 0.02571199355470862 10.005908607061775 19.62746769067127 0 0 0
133 3 2.636032879910914 2.2673953750120712 18.966526877231463 0 0 0
77 2 6.176071922830491 1.8890722408899108 19.521047531983843 0 0 0
5 1 5.178572203231003 2.115334250411524 20.919432389752604 0 0 0
80 2 4.565826963883661 0.44693066279429505 20.784804876870492 0 0 0
122 3 9.938328413532979 10.029119800428107 20.332450515835596 -1 -1 0
20 2 8.733665418160534 3.6752588100205656 20.231828622770735 0 0 0
26 2 10.41145368373298 5.015796747282148 18.77521522482541 0 0 0
4 1 9.895780158008845 3.374998138452204 18.97990906631047 0 0 0
16 2 11.453062138531463 2.9178376408133953 19.656388393484704 0 0 0
19 2 9.315857574116588 3.508203387425465 17.36509344258634 0 0 0
83 2 2.338737469600217 9.326201876336038 19.936019353518795 0 0 0
151 3 6.775921664693781 6.199814633543872 19.62621150717931 0 -1 0
68 2 5.796740438402586 6.358469167803212 19.810492506877416 0 -1 0
61 2 3.9047169303608524 2.299277296600776 22.168023543235304 0 0 0
52 2 6.341975879283068 2.281605806100623 22.072264057587077 0 0 0
78 2 4.559494578937221 3.520874982236365 20.034550016941505 0 0 0
17 2 9.510408532407945 1.6462009326712548 18.84353504018267 0 0 0
79 2 9.454868207186173 10.057572008185044 21.086994732449032 -1 -1 0
157 3 8.214796393357545 8.99315622145688 22.384908761153554 -1 -1 0
65 2 7.638975801999755 8.778854483833877 23.124199141255726 -1 -1 0

Velocities

10 0 0 0
37 0 0 0
49 0 0 0
99 0 0 0
135 0 0 0
167 0 0 0
172 0 0 0
180 0 0 0
187 0 0 0
189 0 0 0
206 0 0 0
213 0 0 0
221 0 0 0
40 0 0 0
111 0 0 0
131 0 0 0
136 0 0 0
144 0 0 0
171 0 0 0
181 0 0 0
183 0 0 0
190 0 0 0
205 0 0 0
210 0 0 0
11 0 0 0
27 0 0 0
28 0 0 0
36 0 0 0
110 0 0 0
115 0 0 0
132 0 0 0
146 0 0 0
188 0 0 0
220 0 0 0
12 0 0 0
39 0 0 0
109 0 0 0
113 0 0 0
127 0 0 0
129 0 0 0
156 0 0 0
178 0 0 0
196 0 0 0
197 0 0 0
209 0 0 0
212 0 0 0
219 0 0 0
13 0 0 0
35 0 0 0
50 0 0 0
112 0 0 0
130 0 0 0
169 0 0 0
174 0 0 0
218 0 0 0
21 0 0 0
34 0 0 0
38 0 0 0
108 0 0 0
134 0 0 0
142 0 0 0
160 0 0 0
168 0 0 0
173 0 0 0
179 0 0 0
185 0 0 0
211 0 0 0
214 0 0 0
43 -3.882393644101648 1.2443228195053415 -1.8572231632207634
201 -1.3633739152573792 1.574850105481817 1.2991726691859489
216 -5.712687795084987 -2.2506323865034448 -1.1364751128427892
177 9.404217284292628 -0.041363966396270525 0.5317841921674761
186 26.728371633092316 -20.631974103460365 -8.502551337161872
102 2.0428933539087315 2.618336692568326 -3.459783134770819
192 23.26367881606089 9.160322012392774 13.990255247300135
194 -4.256701879574416 16.648025712817226 -4.9986622315530695
53 1.0418429782054188 4.91388858206549 2.259557609716914
182 -6.282036976733769 -10.893635180131659 -18.33909660712949
215 3.2254593778275864 0.8708342133589123 1.1745143652601082
193 8.33578396575085 -14.82632078344455 -0.636670076409034
44 1.7005998009507979 5.860637519589353 3.3062125816227854
101 2.268266761771992 1.6899628851746367 2.0842427444105485
175 9.044671220293912 -3.473768427462306 -0.547233906832703
191 -3.094385847545648 -7.612581076484099 -9.812081886854399
29 -0.43195218079673964 3.3542279048267614 -4.1168841970260415
198 -6.23720971562424 -8.819215452869924 2.1871387819103316
107 1.3190293861090285 -5.37648898611192 2.6352551814152654
184 -0.9500079282398874 -9.047094379479395 2.1002251697565266
100 3.3016503991725012 0.28816960363487615 3.597656114287863
176 -7.06694080759579 13.111435820489255 5.121673692691365
199 -0.7226959194121072 -1.6712297209557623 -2.8107731828817637
222 -3.176359669208167 -1.0178515688166478 -3.13701750499517
45 3.6706667732392373 3.5290042353323376 1.1783420016080521
125 0.3329175201240443 -6.61159004491685 -8.368573514114503
200 4.496347358611743 -1.1808851703413068 -6.542159388863401
118 -3.2171601732130544 -7.176619300450854 5.536045581161069
41 -1.73327401566313 1.655306696698335 5.739835418778333
195 15.166501444002707 11.181320025129283 4.52335530805537
103 0.9875564022318017 -2.0198473065788325 0.4232546118148936
208 -1.2762152745466793 0.17618025686020797 -0.1644091609188058
42 5.561856522470466 3.5737510357992432 0.5151873013095158
97 -2.914863702667543 -3.553383536867912 4.050582730077108
116 0.48124733135620074 -17.93292171899688 -8.34894810324694
137 4.701341129150373 -6.712538454001416 19.63365381115168
217 0.602230964386402 -0.18589662617599206 -3.770459793773477
105 1.6115820262078842 -5.756538853213971 -2.8673289818700627
164 -2.5350920923020634 4.6894773034070365 -0.5593667403946788
32 0.29920867936274226 2.295967140674988 -4.466717137234325
120 11.285256776919637 -17.50100451187893 -19.462600006941777
204 5.092003933731181 5.413094583689008 -1.9873595579802072
123 -13.326986084308613 2.5765598056051666 -21.653927140352287
24 1.3846745515234788 3.150420879290973 -1.3522135568746179
47 -2.376575350986894 0.7835086617574438 -2.5931119447763136
148 9.550791689067479 26.43805123787404 11.95776115018412
33 -2.9842509704908613 -0.9863934568655787 4.926903101312241
104 -2.3541397880670694 3.3948787291504368 4.967711362766877
91 2.730441086582207 1.190686990005128 -1.8358888325112208
1 0.4653187404515863 0.5576939700356057 -1.054889707019825
93 -1.2363874506788475 -0.6961590711289736 0.2695562535448837
141 18.04110046516139 7.973312801307322 -8.142308113646498
48 -0.28110502150160405 -3.752648956153188 2.2665700462458247
126 -2.164967412132233 -2.1940449647507028 0.6795510649486984
150 -14.391524859617425 7.675245837173155 -6.487534738374515
158 -1.1303688169926733 2.7207405171818984 4.4842133509620155
202 -0.7167798152162943 -1.9512061171621782 2.2055277639774533
18 2.713504344005103 0.863910618136506 -1.929438481969685
94 -0.4099922059486151 -1.192846047261149 -4.671443760539794
152 -0.2698480657631623 18.39404187154994 3.026318083344271
138 7.181303151771588 5.279674906308318 -14.01672653066033
203 -3.7412405534158824 4.12513648696274 0.18116321779412292
30 -1.5426840777520574 -3.7348711964575254 -1.7837873619378684
162 -5.170369277050997 -3.7008417821210116 3.263408406559708
96 2.611492434672188 -1.4852751917032985 2.481606350192129
75 4.442731343463312 -1.105461887240366 4.067048834822786
92 1.3304301514525227 2.483452887068889 -7.093938822764368
54 -3.4285737154846974 1.7540160378259853 -2.315882222061099
128 -7.290641669919496 0.388784210244865 -5.09596381912836
114 1.5474417692443003 -2.36977902984089 -6.311728255191528
124 -0.04501396888401398 -7.051571197248824 -2.3810584149920984
140 3.4241319208527705 12.451340655750773 8.706400421809276
166 5.666239895405111 15.491456762605125 -4.34054864149632
207 -7.166374792522533 1.7048714138855263 -4.8224519958579455
139 -1.9357188122648992 4.379089005422625 -1.735172505700913
31 -1.7422806660479164 1.6355193903270717 3.7030049791873214
106 1.8452703544120652 -0.1459812525649471 1.4634062681949997
46 1.2276955483311307 -4.469073126667118 -3.0895116748691205
87 -2.9299834020752686 1.1386014163852038 -0.8297451567225785
89 -1.0316048077971474 -5.43965929174723 -2.3091620693880466
88 -6.456877661770029 0.41593558563613237 6.530967363035801
25 2.816429551632314 -0.9867322654476232 -6.022061984312029
51 4.149367665358428 -1.5681471656692965 2.2969523677437236
14 1.9511848796376643 -2.4728323124755 6.577421476249737
9 4.5919025707079735 -2.997053923049273 0.5825041410701116
74 -3.233117073989057 7.250349848869053 -0.29918201601668765
95 -3.8548562032253995 0.41062463976886543 0.33237763087788397
8 0.36384856306838154 -3.144731404147363 -0.5175921945437066
15 -0.6909280312022331 -1.5792365252291356 4.90811820013869
57 2.4135670301779664 6.321553064199356 2.211652236795957
7 0.33007448406040024 2.7021421071225253 0.4870253434963941
23 0.5903298064520873 -4.9320179675036 -1.884035503036155
70 2.2529870798956946 1.9202824287631945 -1.2595975488186995
165 -8.902336919553932 19.168009283489276 -34.21782185800991
73 2.1931687746665687 -2.8085797861964465 -3.82313375586378
2 -0.11386460361318046 0.9598076720020353 -0.6188953662484665
66 1.8097649520867791 2.6071070906428186 2.1796572663577263
155 39.977340384920964 -4.490894235330559 -1.3239122634212432
76 6.697636523673199 2.0051352635867836 -2.466194158437601
67 6.443309783094879 6.523487174765217 -0.7004111371230459
154 25.44686321580361 20.833251704966745 6.4609588844877335
90 -1.973537963846569 -1.8035452330549657 -0.6793213126394742
86 -9.08456324032032 0.13310476212268202 -3.267525839062416
3 -0.6733841496586884 -1.309509719088093 0.5153978389357148
159 9.70629404644021 -14.737870903530185 20.086667453327216
60 1.8947746755510908 -2.7702268691535323 -3.2611465053710442
153 -6.4022122152786585 -13.579676873694671 23.57548657366828
22 -2.9096419561155566 3.5161747761098336 1.51992360735663
119 20.928582595160464 -3.0253023898757347 12.467119024462992
121 17.82348360314251 5.7424936138407885 -12.311791885265624
56 -3.566305339498325 1.8894405749895364 -0.34700665869366776
59 -1.966565726416207 -2.6171668125340717 -2.077177438628601
71 -2.289667921235177 1.2604950788366807 -3.7805422985891872
145 2.656829917210804 -14.633042155855374 5.90902069954068
69 5.254282161427221 1.472715550769817 5.088975099057706
147 13.460602306583278 6.764283399090709 -3.5006281181415697
64 -1.9332426294955407 -2.825631734168096 -1.8840589820416167
84 2.561650111599918 0.7335953169972269 -0.25824558383205126
72 2.395070897383155 3.9483054820878007 0.8104628601804262
143 17.154251508887043 -4.21063666852781 -5.395807129216485
170 0.3845966128211151 8.025261993708577 -22.558268195200288
98 0.6962575798892384 -6.6642525153341 6.327512821361357
163 -5.297442992723182 2.16674984978934 9.574592341454585
63 -4.424928792131653 -3.1218892672917113 4.308962581897782
62 0.9777324789631974 -1.4569411680404103 -1.1112845675466743
117 -13.662758538480702 -4.732083165810754 -26.377092190006913
55 -0.9172806674805478 -3.6167828338596175 3.356746623593329
161 2.03016217151278 -13.23319400066794 -1.5134368803484188
149 7.174931162755887 -6.076030075615572 2.5611786350487655
81 1.9964929412029357 2.987196950456873 3.7021460598103046
82 1.2505645063106128 -2.099654182762747 -1.565352815886068
58 1.334167420900012 5.696914867242646 1.9455139884417096
6 1.1259234967188676 0.7601919694935136 0.724906346173385
85 0.10544233405649564 2.8379682133261763 0.4323243729073081
133 -13.374997959163327 -10.241451196274808 -10.270649769701501
77 5.079970867567699 -2.881700838266603 -1.3222698277994513
5 0.22505492387490542 -0.6862168729346108 3.216560499864884
80 2.9290583647473056 1.8389706395495906 2.2513647417934735
122 0.3168651723948084 14.335893183704972 -8.130757461115763
20 -1.3603624711122038 -5.39399232517331 3.4944904055521993
26 5.576994396509352 -1.3914604369266126 -0.7409335445275236
4 1.1811097180948746 -2.536529954420254 -4.869032674622721
16 -3.425356867020075 0.42787465532876695 -5.227466350391838
19 -1.5156638026290783 5.217431662824523 -1.8399615457187934
83 2.5659902790020763 2.799802957611266 -3.7008988554071314
151 11.347321278128124 5.9412336526611265 -1.9055563517643426
68 8.028796006569744 -3.2071670675910786 5.227376560076735
61 -3.3381225649349426 0.16953813788162497 -0.397261908599903
52 -4.686821169378161 -2.0648076840290597 -3.806528427650412
78 -4.14374304705708 -1.7713831196912364 -8.553410953523112
17 -6.198795039769793 1.2694974335020277 -4.03846390663215
79 -11.212645572966984 -3.841345539527229 0.14159681549355568
157 -7.84737396996424 -26.70084553636866 5.471152764690309
65 0.2527104105025668 -1.1049601057146325 0.339298640773873
