90
Lattice="9.8224603672817 0.0 0.0 -4.911230183640904 8.519569098152305 0.0 5.83e-14 0.0360251379324295 26.999979658241696" Properties=species:S:1:pos:R:3:forces:R:3 energy=-618.535735256805 stress="-0.01025814974279204 -0.002550097856955502 -0.00029193425903953476 -0.002550097856955502 -0.002262445800120616 0.0010142224598426281 -0.00029193425903953476 0.0010142224598426281 0.005349258238469349" free_energy=-618.535735256805 pbc="T T F"
H        0.34216190       1.75336490       0.68922799       0.27542841       0.02689241       1.64029185
H        5.25339209       1.75336490       0.68922799       0.27472507       0.02704935       1.64018517
H        1.24281518       1.78399526      10.48316852       0.00475311      -0.04324130      -0.02504917
H       -2.11345319       6.01314945       0.68922799       0.27547287       0.02683418       1.64037041
H        2.79777699       2.50862738       0.09796472       0.39902999      -0.15582779       1.93351468
H        7.70900718       2.50862738       0.09796472       0.39891461      -0.15562331       1.93337179
H        3.75228170       6.08416520      10.44949155      -0.00231019       0.02561909       0.01537057
H        6.80650793       4.02580927      10.52779326       0.01018394       0.01890204       0.01654595
H        6.24382918       1.83027930      10.38400565       0.02611988       0.01711154      -0.00057340
H        2.79777699       6.01314945       0.68922799       0.27507111       0.02680279       1.64045228
H        0.34216190       6.76841193       0.09796472       0.39890167      -0.15584699       1.93355752
H        1.86720090       3.95995375      10.55133834       0.03970778      -0.00079335       0.00787192
H        5.25339209       6.76841193       0.09796472       0.39901065      -0.15564518       1.93331310
H        4.36570480       8.26654820      10.52293485       0.01126251      -0.00464546      -0.00157959
H       -1.21113786       6.04566410      10.46269259      -0.00667085       0.01237025       0.00186675
H        1.68123051       3.24794254      14.04674847       1.02848324      -0.09728286       0.18823950
H       -0.59194208       8.22942038      10.53456338      -0.01137670      -0.00844349      -0.00092870
O        1.34676698       1.18008382       4.73409248      -0.00876167      -0.00355092      -0.01042152
O        7.99376928       0.54028401       8.26706649       0.00625992      -0.00833173      -0.00604371
O        3.07541272       0.56230606       8.31224141      -0.02219909      -0.00766717       0.02068547
O        0.77379370       4.85167455       2.91987818      -0.12011367       0.05968067       0.15248614
O        0.61520530       4.81630998       8.30610446       0.01717575      -0.02361500       0.02347007
O        5.63862611       3.68725588       5.32118968       0.00450403      -0.00278994      -0.00913744
O        0.25662687       1.70827285       7.07027541      -0.00379026      -0.00545813       0.00805206
O        5.68502388       4.85167455       2.91987818      -0.14715670       0.04531095       0.19937637
O       -1.45298573       7.75897899      10.56832867       0.01498963      -0.00007850      -0.01959471
O        5.52860208       4.81446456       8.26639258      -0.01703646      -0.01734395       0.00713641
O       -2.11345319       6.01396077       1.68922766       0.11772883      -0.28288432      -1.43968352
O        3.22940879       0.59189000       2.91987818      -0.12133413       0.06237048       0.15190122
O        8.14063897       0.59189000       2.91987818      -0.13384475       0.05669902       0.17517689
O        6.24969502       1.18334092       4.72784600      -0.00856769      -0.00073455      -0.00114560
O       -1.22789635       5.05464985      10.37515320       0.01894385      -0.00947094       0.00188802
O        7.70900718       2.50943871       1.09796439      -0.18524631       0.38848298      -1.67573694
O        7.61604498       2.56343960       6.60562023       0.00418900       0.01103907       0.00787928
O        2.79777699       6.01396077       1.68922766       0.11890590      -0.28204906      -1.44009803
O       -1.10601063       5.44105405       4.73580440      -0.00501819       0.00195170       0.00486302
O        5.25339209       6.76922326       1.09796439      -0.18508623       0.38798654      -1.67544357
O        5.15707489       6.83933815       6.60521044      -0.00191421      -0.01382065       0.00259013
O        3.72211885       5.09254662      10.37167880      -0.01571474       0.01144870      -0.06035283
O       -1.11571431       3.10401670       3.48815814      -0.19192811      -0.10589246       0.04706529
O        3.85478727       2.91794898       9.03154257      -0.01296672       0.03929518      -0.03712275
O        5.16168809       1.70005253       7.07188998      -0.01832338      -0.00255054       0.01910192
O        0.73748353       3.68685231       5.31621411      -0.00108940       0.00108641       0.00231547
O        6.20719491       0.83771649      10.36859455      -0.01325392      -0.01753130      -0.00767466
O        3.79655284       5.44193006       4.73287823      -0.00254912       0.00250667       0.00868410
O       -3.52536193       7.16417586       9.02939359      -0.00357831       0.02164923       0.01278145
O        1.33990079       7.36380125       3.48815814      -0.22866078      -0.14236034       0.00665970
O        3.79551588       3.10401670       3.48815814      -0.20674787      -0.11521901       0.03009629
O        3.51226639       7.77529717      10.53959398       0.01303894      -0.00927827      -0.00785635
O       -3.57132940       7.36380125       3.48815814      -0.19258213      -0.11417926       0.04342986
O       -1.07000424       2.89613059       9.02950879       0.02082965       0.02094378       0.03091552
O        1.20826560       0.79632771      10.36750218      -0.03425132      -0.00953652      -0.00734038
O        1.39929563       7.16877053       9.04508390       0.00370401      -0.01446951       0.00865611
O        0.34216190       6.76922326       1.09796439      -0.18526940       0.38822881      -1.67707667
O        1.00542340       3.49121871      10.56365055       0.01355589      -0.01381649       0.03197397
O        0.24923641       6.83030699       6.62333309       0.00544330      -0.01047740       0.01012755
O        3.17945785       7.94796475       5.31915953       0.00208169      -0.00629813       0.00692720
O        2.70856265       2.56583102       6.61405814       0.00982151       0.00233389       0.01186603
O        2.79777699       2.50943871       1.09796439      -0.18536775       0.38858961      -1.67646552
O        2.70455088       5.96316481       7.07494880      -0.00993063       0.00800277       0.01019218
O        0.34216190       1.75417623       1.68922766       0.11811030      -0.28256041      -1.43938652
O        5.25339209       1.75417623       1.68922766       0.11956092      -0.28278275      -1.44121412
O       -1.71734509       7.94765800       5.31581410      -0.00177961      -0.00140207       0.00237159
O        5.94930603       3.54068996      10.54910480      -0.03122181      -0.05129718      -0.01110283
O       -2.20524530       5.97100000       7.06863885      -0.00249510      -0.00642136      -0.00961999
F        2.61438814       3.25651977      14.15241189     -15.09618963      -1.15425526       4.78984483
F        3.73824127       1.58513627      14.18273977       1.29376412      -2.34722296       0.12760916
F        3.50700026       2.26334349      11.95953351      -0.16417747      -0.17572524      -0.40093455
F        4.08888671       3.82061209      13.61505467      11.46669207       3.02365446      -4.33863580
Si       3.76749750       1.99202177       2.29942607      -0.26955750       0.09881082      -0.65049608
Si      -3.66785809       6.20813674       7.71981290       0.01455975       0.00540111      -0.01136333
Si      -3.59934778       6.25180632       2.29942607      -0.26789856       0.10367540      -0.65515671
Si      -1.20728986       1.93521159       7.72054201      -0.01462346      -0.00978131      -0.02149868
Si      -1.14373268       1.99202177       2.29942607      -0.26761901       0.10187806      -0.65803221
Si       7.18747053       0.01669094       4.09111294       0.00263218      -0.00053312       0.00549549
Si       1.26280544       2.28047095       5.91855427       0.00098126      -0.00494865      -0.01550388
Si      -0.15407323       4.13065389       9.57026604      -0.08437000       0.04696704      -0.06541242
Si       2.29605663      -0.11763278       9.57354861       0.04822415      -0.00662403       0.00225889
Si       3.70783990       6.54154277       5.91949988      -0.00059860      -0.00443226      -0.00237862
Si       2.28107675       0.01356238       4.09282895       0.00159133      -0.00411944      -0.00732082
Si       6.16570891       2.27832688       5.91813367      -0.00534389       0.00497074      -0.00602008
Si       3.70379459       1.94295020       7.73554379       0.01551195      -0.00496295      -0.00262273
Si       1.31188241       6.25180632       2.29942607      -0.27148195       0.10024498      -0.65126964
Si       1.24590786       6.20100067       7.74075590       0.00701078       0.02621927      -0.01732808
Si       4.73369117       4.27534523       4.09317575      -0.00397007       0.00316067       0.00004432
Si       7.24830111      -0.11964770       9.55720481      -0.01192600       0.01664576       0.01910851
Si      -1.19326492       6.54142049       5.92069073      -0.00284538       0.00402497      -0.00472966
Si      -0.17413083       4.27306969       4.09292992      -0.00605968       0.00412894      -0.00308827
Si       4.76891881       4.16025166       9.54981566       0.04965245      -0.07450341       0.04551440
P        4.59169564       2.40092888      13.11963817       1.45827075       0.78935658      -0.36105646
90
Lattice="9.8224603672817 0.0 0.0 -4.911230183640904 8.519569098152305 0.0 5.83e-14 0.0360251379324295 26.999979658241696" Properties=species:S:1:pos:R:3:forces:R:3 energy=-619.7054229357007 stress="-0.010892245308123966 -0.000676385661422827 -0.004605031819137986 -0.000676385661422827 -0.0005955577467061865 -1.4868483166764855e-05 -0.004605031819137986 -1.4868483166764855e-05 0.0065222940718094" free_energy=-619.7054229357007 pbc="T T F"
H        0.34216190       1.75336490       0.68922799       0.27547904       0.02689184       1.64042288
H        5.25339209       1.75336490       0.68922799       0.27476941       0.02703330       1.64034896
H        1.24287504       1.78345065      10.48285304       0.00377797      -0.00548112      -0.01673637
H       -2.11345319       6.01314945       0.68922799       0.27553801       0.02683060       1.64050607
H        2.79777699       2.50862738       0.09796472       0.39905422      -0.15585472       1.93367681
H        7.70900718       2.50862738       0.09796472       0.39894083      -0.15563274       1.93352165
H        3.75225260       6.08448786      10.44968513       0.00641163      -0.00588812       0.00123272
H        6.80663619       4.02604733      10.52800165      -0.01354265      -0.00496488      -0.00077736
H        6.24415815       1.83049482      10.38399843       0.01170213      -0.02050779       0.00608173
H        2.79777699       6.01314945       0.68922799       0.27513100       0.02677625       1.64057516
H        0.34216190       6.76841193       0.09796472       0.39893178      -0.15585272       1.93370672
H        1.86770100       3.95994376      10.55143748       0.01952867      -0.01410718       0.01956267
H        5.25339209       6.76841193       0.09796472       0.39903685      -0.15563858       1.93344655
H        4.36584664       8.26648969      10.52291496       0.00797649      -0.00641762      -0.00281891
H       -1.21122188       6.04581990      10.46271611      -0.00366924       0.00081410       0.00202454
H        1.69418381       3.24671731      14.04911926     -22.88876842       0.14853810      -4.93055103
H       -0.59208537       8.22931403      10.53455168       0.00489601       0.01438825       0.00869902
O        1.34665663       1.18003910       4.73396123      -0.00615964      -0.00732494      -0.01480051
O        7.99384812       0.54017907       8.26699037       0.00062128      -0.00315177      -0.00256216
O        3.07513313       0.56220950       8.31250194      -0.00181129       0.00402721      -0.00205576
O        0.77379370       4.85167455       2.91987818      -0.12001742       0.06056102       0.15126432
O        0.61542162       4.81601256       8.30640006       0.02291226       0.00898170      -0.00759840
O        5.63868284       3.68722074       5.32107460       0.00313813      -0.00060530      -0.01217171
O        0.25657913       1.70820411       7.07037682       0.00133369      -0.00230173      -0.00393144
O        5.68502388       4.85167455       2.91987818      -0.14709452       0.04624392       0.19838041
O       -1.45279694       7.75897801      10.56808189      -0.01015688      -0.01227409      -0.02215029
O        5.52838751       4.81424612       8.26648246       0.00174747      -0.00426746       0.00094459
O       -2.11345319       6.01396077       1.68922766       0.11786849      -0.28290692      -1.44011277
O        3.22940879       0.59189000       2.91987818      -0.11988818       0.06315156       0.14989689
O        8.14063897       0.59189000       2.91987818      -0.13390705       0.05707412       0.17499342
O        6.24958711       1.18333167       4.72783157      -0.00676991      -0.00258257      -0.00266422
O       -1.22765776       5.05453057      10.37517698      -0.00661077       0.02019770       0.01010833
O        7.70900718       2.50943871       1.09796439      -0.18545003       0.38856269      -1.67627645
O        7.61609774       2.56357863       6.60571947      -0.00935701       0.01378079      -0.00477250
O        2.79777699       6.01396077       1.68922766       0.11905888      -0.28215776      -1.44056186
O       -1.10607383       5.44107863       4.73586565      -0.00341634      -0.00076628      -0.00003182
O        5.25339209       6.76922326       1.09796439      -0.18522913       0.38805645      -1.67589176
O        5.15705078       6.83916409       6.60524306      -0.00401265      -0.01107265      -0.00675867
O        3.72192093       5.09269081      10.37091868      -0.00740438      -0.00672282      -0.02979528
O       -1.11571431       3.10401670       3.48815814      -0.19262540      -0.10669446       0.04543571
O        3.85462396       2.91844389       9.03107503      -0.01392778       0.00683999      -0.00890334
O        5.16145731       1.70002040       7.07213057       0.01346589      -0.00349178      -0.00553589
O        0.73746981       3.68686599       5.31624327      -0.00396762       0.00356851      -0.00437720
O        6.20702798       0.83749569      10.36849789       0.00212384       0.02056746      -0.00238023
O        3.79652074       5.44196163       4.73298760      -0.00083745      -0.00390264      -0.00003636
O       -3.52540699       7.16444852       9.02955457       0.00435394       0.00708795      -0.00083232
O        1.33990079       7.36380125       3.48815814      -0.22813898      -0.14231019       0.00571116
O        3.79551588       3.10401670       3.48815814      -0.20695177      -0.11590197       0.02866839
O        3.51243061       7.77518032      10.53949503       0.00493671       0.00732145      -0.00132545
O       -3.57132940       7.36380125       3.48815814      -0.19326336      -0.11620445       0.04109567
O       -1.06974190       2.89639437       9.02989816      -0.00829179      -0.01531622      -0.00732455
O        1.20783422       0.79620760      10.36740973      -0.00225367      -0.02393643      -0.00844462
O        1.39934228       7.16858830       9.04519292       0.00222821      -0.01226792       0.00598358
O        0.34216190       6.76922326       1.09796439      -0.18549535       0.38826369      -1.67762824
O        1.00559413       3.49104470      10.56405325      -0.01952681       0.00975581      -0.00912307
O        0.24930497       6.83017503       6.62346064      -0.01001489      -0.00543063      -0.00520992
O        3.17948407       7.94788543       5.31924678      -0.00117505      -0.00102966      -0.00035491
O        2.70868635       2.56586041       6.61420759      -0.00546511      -0.00073731      -0.00560010
O        2.79777699       2.50943871       1.09796439      -0.18557720       0.38857630      -1.67697829
O        2.70442581       5.96326560       7.07507716       0.00021887       0.00898674      -0.00657391
O        0.34216190       1.75417623       1.68922766       0.11826243      -0.28260133      -1.43990399
O        5.25339209       1.75417623       1.68922766       0.11963856      -0.28290217      -1.44169144
O       -1.71736750       7.94764034       5.31584397      -0.00366283       0.00309324      -0.00231304
O        5.94891280       3.54004390      10.54896497       0.06976404      -0.01194864      -0.00652381
O       -2.20527673       5.97091913       7.06851769       0.00413939      -0.00594776      -0.01426096
F        2.42425810       3.24198242      14.21273794      19.80650187       0.34494599       5.82649628
F        3.75453568       1.55557401      14.18434695       1.19919369      -0.25264662      -0.42412775
F        3.50493251       2.26113031      11.95448391       0.35839801       0.12775829       0.17451329
F        4.23330479       3.85869372      13.56041141       1.64282485       0.68227929      -0.44779909
Si       3.76749750       1.99202177       2.29942607      -0.26967545       0.09945831      -0.64864653
Si      -3.66767472       6.20820476       7.71966979      -0.00891420      -0.00892731       0.01801933
Si      -3.59934778       6.25180632       2.29942607      -0.26837960       0.10337576      -0.65366582
Si      -1.20747404       1.93508840       7.72027125      -0.00376413       0.00219280       0.01168418
Si      -1.14373268       1.99202177       2.29942607      -0.26782605       0.10180634      -0.65635661
Si       7.18750369       0.01668423       4.09118215       0.00272770      -0.00093421       0.00969519
Si       1.26281780       2.28040862       5.91835900       0.00717217      -0.00347030       0.00791691
Si      -0.15513584       4.13124542       9.56944220       0.01793584       0.00230685       0.00343552
Si       2.29666399      -0.11771621       9.57357706       0.00120399      -0.01036495       0.00954359
Si       3.70783236       6.54148694       5.91946992       0.00123523      -0.00586237       0.01861457
Si       2.28109679       0.01351049       4.09273675       0.00064848      -0.00177718       0.00005731
Si       6.16564161       2.27838948       5.91805785      -0.00667086      -0.00009543       0.01366045
Si       3.70398996       1.94288769       7.73551076      -0.00826004       0.00175531       0.01788121
Si       1.31188241       6.25180632       2.29942607      -0.27163415       0.10057272      -0.64941980
Si       1.24599616       6.20133089       7.74053766       0.00349795      -0.00221757       0.01577913
Si       4.73364116       4.27538504       4.09317631      -0.00492599       0.00451367       0.00417863
Si       7.24815091      -0.11943805       9.55744547      -0.00213622      -0.00549955       0.00326343
Si      -1.19330076       6.54147118       5.92063117       0.00307655       0.00178197       0.00792342
Si      -0.17420715       4.27312169       4.09289103      -0.00320938       0.00327539       0.00409063
Si       4.76954416       4.15931333       9.55038890      -0.02667667       0.02600120       0.00400147
P        4.61006193       2.41087048      13.11509082      -0.14488892      -1.04909591      -0.19868554
90
Lattice="9.8224603672817 0.0 0.0 -4.911230183640904 8.519569098152305 0.0 5.83e-14 0.0360251379324295 26.999979658241696" Properties=species:S:1:pos:R:3:forces:R:3 energy=-621.6070271697713 stress="-0.0022371796686933127 -0.00019855726861937078 -0.002837222680280516 -0.00019855726861937078 -0.0005851981247784113 -0.0003493433201672535 -0.002837222680280516 -0.0003493433201672535 0.006998603589824032" free_energy=-621.6070271697713 pbc="T T F"
H        0.34216190       1.75336490       0.68922799       0.27545719       0.02690085       1.64038203
H        5.25339209       1.75336490       0.68922799       0.27476473       0.02703201       1.64031762
H        1.24295893       1.78293863      10.48243854       0.01098780      -0.00667616      -0.01760742
H       -2.11345319       6.01314945       0.68922799       0.27555896       0.02683445       1.64046992
H        2.79777699       2.50862738       0.09796472       0.39904748      -0.15586740       1.93366907
H        7.70900718       2.50862738       0.09796472       0.39894018      -0.15563689       1.93352953
H        3.75228353       6.08471180      10.44986092       0.00875056      -0.01313252      -0.00337965
H        6.80662782       4.02620716      10.52817258      -0.02069479      -0.00878462      -0.00204122
H        6.24454039       1.83050030      10.38404514       0.00518209      -0.01052116       0.01432937
H        2.79777699       6.01314945       0.68922799       0.27512749       0.02676894       1.64057251
H        0.34216190       6.76841193       0.09796472       0.39893318      -0.15584798       1.93371997
H        1.86829720       3.95981260      10.55169208       0.00568722      -0.02614755       0.00174864
H        5.25339209       6.76841193       0.09796472       0.39902504      -0.15562339       1.93344590
H        4.36603694       8.26638402      10.52287349       0.00788152      -0.00726216      -0.00363459
H       -1.21132541       6.04595982      10.46275375      -0.00418186       0.00256315       0.00306008
H        1.50624849       3.24696387      14.00827773       1.71055109      -0.04367567       0.53826546
H       -0.59216498       8.22934844      10.53461733       0.01079145       0.02092158       0.01225044
O        1.34650899       1.17993729       4.73372065      -0.00663376      -0.00299918      -0.00903031
O        7.99392075       0.54006220       8.26690319      -0.00244900      -0.00334485       0.00150393
O        3.07487899       0.56216217       8.31270621       0.00625876       0.01175715      -0.01345202
O        0.77379370       4.85167455       2.91987818      -0.12109087       0.06009763       0.15255929
O        0.61580525       4.81583704       8.30658605       0.02125404       0.01225325      -0.00915267
O        5.63875849       3.68718552       5.32087066       0.00385278      -0.00137480      -0.00795212
O        0.25655002       1.70812548       7.07042911      -0.00159807      -0.00086997      -0.00391937
O        5.68502388       4.85167455       2.91987818      -0.14848651       0.04593743       0.20012641
O       -1.45272426       7.75887046      10.56767890      -0.00667094      -0.01991031      -0.01420226
O        5.52821975       4.81402276       8.26656731       0.00719486       0.00534117       0.00138851
O       -2.11345319       6.01396077       1.68922766       0.11783390      -0.28283988      -1.43989721
O        3.22940879       0.59189000       2.91987818      -0.11924470       0.06301112       0.14965922
O        8.14063897       0.59189000       2.91987818      -0.13526301       0.05604529       0.17771026
O        6.24943625       1.18330133       4.72779611      -0.00600219       0.00012042       0.00268681
O       -1.22751179       5.05460445      10.37528513      -0.00988602       0.02747902       0.01640600
O        7.70900718       2.50943871       1.09796439      -0.18539543       0.38859385      -1.67620583
O        7.61606138       2.56381698       6.60576260      -0.01064162       0.01367134      -0.00374525
O        2.79777699       6.01396077       1.68922766       0.11907575      -0.28221282      -1.44045897
O       -1.10615742       5.44109293       4.73591759      -0.00349684       0.00062801       0.00120053
O        5.25339209       6.76922326       1.09796439      -0.18512321       0.38809360      -1.67573340
O        5.15699534       6.83891941       6.60521212       0.00159341      -0.01029329      -0.00293224
O        3.72168780       5.09275532      10.37001152      -0.01691903       0.00423795      -0.01480087
O       -1.11571431       3.10401670       3.48815814      -0.19281942      -0.10600717       0.04643314
O        3.85436363       2.91892534       9.03059896      -0.01038932       0.00478224      -0.00521893
O        5.16137760       1.69996266       7.07228758       0.02269322      -0.00519885      -0.00988510
O        0.73742362       3.68690868       5.31623008      -0.00251099       0.00002072      -0.00128536
O        6.20690411       0.83748622      10.36839478       0.00874153       0.00502220      -0.01411271
O        3.79648608       5.44195463       4.73308054      -0.00196896      -0.00344118       0.00099551
O       -3.52540757       7.16474264       9.02968459       0.00333834      -0.00655753      -0.01158603
O        1.33990079       7.36380125       3.48815814      -0.22693616      -0.14075649       0.00753448
O        3.79551588       3.10401670       3.48815814      -0.20694482      -0.11504052       0.02984608
O        3.51261355       7.77514432      10.53939914       0.00183847       0.00851809      -0.00071784
O       -3.57132940       7.36380125       3.48815814      -0.19374776      -0.11733319       0.04098745
O       -1.06959029       2.89648614       9.03016649      -0.01427773      -0.02454776      -0.01876166
O        1.20744680       0.79589710      10.36725749       0.00274161      -0.03298665      -0.01021721
O        1.39940142       7.16832626       9.04533789       0.00282232      -0.00371525       0.01077924
O        0.34216190       6.76922326       1.09796439      -0.18548704       0.38825627      -1.67758996
O        1.00556996       3.49098113      10.56431731       0.00188411       0.03239658       0.02532470
O        0.24927636       6.83001530       6.62352411      -0.01066037      -0.00351210      -0.00473241
O        3.17949621       7.94780884       5.31931808       0.00002222      -0.00196764       0.00218055
O        2.70874431       2.56587906       6.61428634      -0.00920531      -0.00413140      -0.00976902
O        2.79777699       2.50943871       1.09796439      -0.18553394       0.38854352      -1.67677059
O        2.70432107       5.96342967       7.07512947       0.00226307       0.00736401      -0.00701707
O        0.34216190       1.75417623       1.68922766       0.11827783      -0.28255266      -1.43980637
O        5.25339209       1.75417623       1.68922766       0.11950464      -0.28284960      -1.44151887
O       -1.71741845       7.94765217       5.31584933      -0.00242489       0.00234954       0.00016958
O        5.94918399       3.53938914      10.54878902       0.08317655      -0.01478936      -0.00730807
O       -2.20526754       5.97079846       7.06829040       0.00000630      -0.00648597      -0.00686774
F        2.43432309       3.23258545      14.31482859      -3.96498338       0.97744202       0.20864389
F        3.77885462       1.52817050      14.18203027       1.30432276       0.03597418      -0.54316604
F        3.50628507       2.26035382      11.95169532       0.35124915       0.28597807       0.29001272
F        4.37072887       3.89709647      13.50992531       0.35617758       0.60468505       0.01844456
Si       3.76749750       1.99202177       2.29942607      -0.26934570       0.09964977      -0.64942885
Si      -3.66759585       6.20818516       7.71970440      -0.01600623      -0.01456191       0.02573179
Si      -3.59934778       6.25180632       2.29942607      -0.26849679       0.10291170      -0.65467864
Si      -1.20766381       1.93500242       7.72014195       0.00391081       0.00246492       0.01401358
Si      -1.14373268       1.99202177       2.29942607      -0.26782782       0.10159455      -0.65691964
Si       7.18755567       0.01667038       4.09132545       0.00163075      -0.00157620       0.00328167
Si       1.26289069       2.28032531       5.91826133       0.00782897      -0.00200156       0.00593454
Si      -0.15588597       4.13176986       9.56876960       0.02867705      -0.00179808       0.00199429
Si       2.29719235      -0.11787745       9.57368429      -0.02179193      -0.00739843       0.00877167
Si       3.70783667       6.54138838       5.91960620      -0.00164104      -0.00362637       0.01214830
Si       2.28111952       0.01345081       4.09265862       0.00037855      -0.00110342      -0.00140301
Si       6.16552623       2.27844203       5.91811195      -0.00753022      -0.00369367       0.00864216
Si       3.70408473       1.94284965       7.73563804      -0.01969680       0.00372593       0.02144547
Si       1.31188241       6.25180632       2.29942607      -0.27145378       0.10093473      -0.64992501
Si       1.24610185       6.20159318       7.74048874       0.00331935      -0.00928845       0.01818027
Si       4.73355571       4.27545822       4.09321311      -0.00387078       0.00301511      -0.00214978
Si       7.24800426      -0.11930710       9.55767905       0.00354990      -0.01196210      -0.00401222
Si      -1.19330457       6.54152990       5.92064926       0.00307360       0.00207081      -0.00084153
Si      -0.17430012       4.27319451       4.09289342      -0.00137230       0.00179353       0.00096449
Si       4.76984547       4.15873926       9.55091247      -0.03254896       0.03658290      -0.01773121
P        4.62446294       2.41022732      13.10948614       0.20807192      -1.85245980      -0.50989494
90