88
Lattice="9.8224603672817 0.0 0.0 -4.911230183640904 8.519569098152305 0.0 5.83e-14 0.0360251379324295 26.999979658241696" Properties=species:S:1:pos:R:3:forces:R:3 energy=-614.0115216021279 stress="-0.0017180653556677073 -0.001436848913273685 -0.0031131557681009885 -0.001436848913273685 -0.00025073774821027895 0.000617215555238275 -0.0031131557681009885 0.000617215555238275 0.005936642719370321" free_energy=-614.0115216021279 pbc="T T F"
H        2.79777699       6.01314945       0.68922799       0.27513228       0.02661719       1.64486308
H        7.70900718       2.50862738       0.09796472       0.39949948      -0.15574949       1.93832937
H        3.75384494       6.06176062      10.46500029       0.03727341      -0.06736316      -0.11998424
H        0.34216190       6.76841193       0.09796472       0.39947302      -0.15574599       1.93837074
H        2.79777699       2.50862738       0.09796472       0.39954762      -0.15573174       1.93823197
H        5.25339209       1.75336490       0.68922799       0.27517189       0.02664530       1.64483785
H       -2.11345319       6.01314945       0.68922799       0.27512583       0.02663594       1.64487872
H        1.29824959       1.80212028      10.46497375       0.00355216       0.02023636      -0.00289196
H        0.34216190       1.75336490       0.68922799       0.27517505       0.02658877       1.64487749
H        6.20936150       1.80202333      10.46500256       0.03691048       0.01842191      -0.05009537
H        6.82754755       3.97988248      10.52346817      -0.01007722      -0.01022283       0.02733560
H       -0.53926256       8.23971407      10.52357968      -0.01946796      -0.00020054      -0.00413951
H        1.91639169       3.97982615      10.52356675      -0.13365905      -0.01264204      -0.04255436
H        5.25339209       6.76841193       0.09796472       0.39955259      -0.15578029       1.93833177
H        4.37196209       8.23956769      10.52342892       0.00682104       0.01444389      -0.00093623
H       -1.15748938       6.06191995      10.46497099      -0.00045457       0.00232430       0.00926677
O        0.64110442       4.81612082       8.29491902      -0.02817314      -0.00569107       0.00018853
O        8.14063897       0.59189000       2.91987818      -0.11701282       0.06671574       0.13665983
O        8.00804608       0.55622601       8.29482787      -0.03422305      -0.00977940       0.01029938
O        0.77379370       4.85167455       2.91987818      -0.11531048       0.06592734       0.13620105
O        5.65711122       3.68254400       5.31265071       0.00228940      -0.00043197       0.00381669
O        0.26761824       1.71085673       7.07664098      -0.00759061      -0.00051621       0.01978479
O        5.68502388       4.85167455       2.91987818      -0.11621019       0.06475828       0.13828728
O       -1.39901390       7.76425677      10.55065119       0.02045147       0.00957795       0.00733149
O        1.35504520       1.17747699       4.74157634      -0.00368100      -0.00498777      -0.00495799
O        5.55237109       4.81601527       8.29479601      -0.00079863      -0.04172393      -0.00316840
O        3.73193387       5.07015015      10.38376613       0.24795861       0.59463474      -0.61762806
O        3.22940879       0.59189000       2.91987818      -0.11573626       0.06742407       0.13564747
O       -1.17939236       5.07024808      10.38377513      -0.00444612      -0.01052636       0.00396072
O        6.26620787       1.17750210       4.74154200      -0.00655831      -0.00439271      -0.00255954
O        6.18752077       0.81039889      10.38378868      -0.04262860       0.03863222       0.06071971
O        3.81060108       5.43728308       4.74151578      -0.00362155      -0.01109326      -0.00821006
O        3.09661322       0.55640724       8.29490126      -0.00423835      -0.00938715       0.00006034
O       -2.18798201       5.97056307       7.07658856       0.00107379       0.00670234       0.00822154
O        3.20148479       7.94231644       5.31267106       0.00060374       0.00268763       0.00243848
O        0.74592350       3.68251877       5.31261835       0.00472785      -0.00160286       0.00485180
O        5.25339209       6.76922326       1.09796439      -0.19051823       0.39027613      -1.68910669
O       -1.10060835       5.43725912       4.74155645      -0.00330831      -0.00677903      -0.00869270
O        7.63296577       2.56966726       6.61720598      -0.00728341       0.01006172      -0.00039617
O        7.70900718       2.50943871       1.09796439      -0.19050955       0.39042721      -1.68938449
O        2.79777699       6.01396077       1.68922766       0.12467943      -0.28214046      -1.45253328
O       -2.11345319       6.01396077       1.68922766       0.12440535      -0.28216360      -1.45263071
O        5.96772770       3.50461336      10.55063411       0.08760718      -0.07521112      -0.10772502
O        3.86744424       2.91020162       9.04243828       0.02138302      -0.00515664      -0.00370586
O        5.17735598       6.82939898       6.61713997      -0.00217820       0.01571706      -0.00814391
O        1.33990079       7.36380125       3.48815814      -0.18199694      -0.10304329       0.04101932
O        3.79551588       3.10401670       3.48815814      -0.18134705      -0.10434971       0.04198025
O        3.51204721       7.76449776      10.55060671      -0.02087786       0.00494779       0.00309307
O       -3.57132940       7.36380125       3.48815814      -0.18228141      -0.10410676       0.04000563
O       -1.04366174       2.91010277       9.04239547      -0.01937826      -0.00982679      -0.00805226
O       -1.11571431       3.10401670       3.48815814      -0.18182740      -0.10545113       0.04033785
O        1.27623657       0.81045865      10.38374565       0.00626078      -0.01002440       0.01256709
O       -3.49935521       7.16989227       9.04250620       0.00408900       0.00378158      -0.00069178
O        1.41193217       7.17000171       9.04236215      -0.00390970       0.02583939       0.01496165
O        5.17885141       1.71076666       7.07656328      -0.00827021      -0.00362023       0.02325100
O        1.05653385       3.50458876      10.55055999      -0.08028965       0.02093763      -0.05792346
O        0.26610219       6.82952487       6.61716359       0.00122899       0.01410902       0.00280591
O        0.34216190       6.76922326       1.09796439      -0.19052414       0.39045490      -1.68949180
O        2.72169597       2.56968314       6.61712225       0.00384633       0.00913000       0.00666872
O        2.79777699       2.50943871       1.09796439      -0.19021362       0.39061313      -1.68868121
O        2.72319506       5.97060985       7.07659951      -0.00282565       0.00244333       0.00690745
O        0.34216190       1.75417623       1.68922766       0.12461302      -0.28215527      -1.45267680
O        5.25339209       1.75417623       1.68922766       0.12431848      -0.28191385      -1.45228700
O       -1.70968488       7.94230951       5.31260484       0.00375451       0.00024347       0.00303211
F        3.33546412       4.34760287      14.35495330      -0.16957751       0.05709337       0.27003376
F        3.34722515       3.60683006      12.16185659      -0.22399081      -0.74621949       0.66775048
F        5.33916536       4.13765032      13.21492825       0.16357468      -0.02984378       0.23047004
Si       3.76749750       1.99202177       2.29942607      -0.27787987       0.08635739      -0.61585324
Si      -3.64711892       6.20613296       7.73823856      -0.01862572      -0.01513006      -0.01360283
Si      -3.59934778       6.25180632       2.29942607      -0.27690617       0.08860213      -0.61453433
Si      -1.19152265       1.94630605       7.73823355      -0.00324721      -0.00608087      -0.02968248
Si      -1.14373268       1.99202177       2.29942607      -0.27766029       0.08822673      -0.61414914
Si       4.79380918       4.14272119       9.57220770      -0.12989457       0.15988206      -0.11341990
Si       7.19571381       0.01080701       4.09489914       0.00963086      -0.00896873       0.01420169
Si       1.27467278       2.28107052       5.92462868      -0.01261435      -0.00909814      -0.00360792
Si      -0.11750634       4.14273495       9.57226070       0.07437762      -0.02466995       0.00726316
Si      -0.17110809       4.27057764       4.09489226       0.00433817      -0.00108419       0.01329128
Si       2.33818430      -0.11707525       9.57232084      -0.02572447       0.00473473       0.00144946
Si       2.28450444       0.01079208       4.09488150       0.00711302      -0.00720744       0.01444076
Si       3.73031082       6.54085093       5.92462004      -0.00546169      -0.01113698       0.01409077
Si       6.18598348       2.28111530       5.92460700       0.00059980      -0.00700909      -0.00580148
Si       3.71970224       1.94644021       7.73819629      -0.02600481      -0.01145323      -0.03263519
Si       1.31188241       6.25180632       2.29942607      -0.27812862       0.08730464      -0.61457278
Si       1.26405278       6.20617479       7.73823440      -0.01707323      -0.01473786      -0.03485021
Si       4.74010199       4.27058517       4.09487894       0.00386773      -0.00015859       0.00945178
Si       7.24938055      -0.11700189       9.57218404       0.06843988      -0.06619605      -0.03489504
Si      -1.18088614       6.54088178       5.92460554      -0.01229498      -0.01294689       0.00817951
P        4.07716606       3.23355857      13.51353987       0.13804399       0.12129510      -0.17819179
88
Lattice="9.8224603672817 0.0 0.0 -4.911230183640904 8.519569098152305 0.0 5.83e-14 0.0360251379324295 26.999979658241696" Properties=species:S:1:pos:R:3:forces:R:3 energy=-614.037666504068 stress="-0.0018251847095019345 -0.0014786164708115454 -0.0031418831536129976 -0.0014786164708115454 -0.0004450353897752598 0.0004791608896689096 -0.0031418831536129976 0.0004791608896689096 0.0058287097851476635" free_energy=-614.037666504068 pbc="T T F"
H        2.79777699       6.01314945       0.68922799       0.27518112       0.02662375       1.64472067
H        7.70900718       2.50862738       0.09796472       0.39944167      -0.15572855       1.93812878
H        3.75437742       6.06079829      10.46328623       0.05839914       0.28379892      -0.09247519
H        0.34216190       6.76841193       0.09796472       0.39942961      -0.15572660       1.93818393
H        2.79777699       2.50862738       0.09796472       0.39950234      -0.15571631       1.93805359
H        5.25339209       1.75336490       0.68922799       0.27521795       0.02664381       1.64467662
H       -2.11345319       6.01314945       0.68922799       0.27518026       0.02664129       1.64472840
H        1.29830034       1.80240937      10.46493244       0.00075531      -0.00696481      -0.00510373
H        0.34216190       1.75336490       0.68922799       0.27523818       0.02658677       1.64473324
H        6.20988879       1.80228650      10.46428691       0.03772730       0.03386609      -0.05013163
H        6.82740359       3.97973644      10.52385868       0.02018900       0.01098266       0.02152178
H       -0.53954068       8.23971120      10.52352055       0.00655807       0.01471687      -0.00443399
H        1.91448227       3.97964555      10.52295883      -0.10441759       0.00158050      -0.04876198
H        5.25339209       6.76841193       0.09796472       0.39950253      -0.15575278       1.93812515
H        4.37205953       8.23977403      10.52341554      -0.01192006       0.00487360       0.00121733
H       -1.15749588       6.06195315      10.46510337       0.00070877      -0.00425773       0.00807208
O        0.64070195       4.81603952       8.29492171      -0.01402895       0.00126307      -0.00945394
O        8.14063897       0.59189000       2.91987818      -0.11879816       0.06495808       0.14050110
O        8.00755717       0.55608630       8.29497501      -0.01504112       0.00800290      -0.01643436
O        0.77379370       4.85167455       2.91987818      -0.11716925       0.06391242       0.14036291
O        5.65714392       3.68253783       5.31270523       0.00298718      -0.00126268       0.00596403
O        0.26750981       1.71084936       7.07692362       0.00589586      -0.00181653       0.00959063
O        5.68502388       4.85167455       2.91987818      -0.11730081       0.06366229       0.14088981
O       -1.39872174       7.76439360      10.55075592      -0.01643345       0.00022599      -0.00013894
O        1.35499262       1.17740573       4.74150551      -0.00472327      -0.00217282      -0.00014427
O        5.55235968       4.81541922       8.29475075       0.02320325      -0.01258976      -0.05145598
O        3.73547613       5.07864493      10.37494287       0.15412159       0.19496281      -0.52869290
O        3.22940879       0.59189000       2.91987818      -0.11814556       0.06543722       0.13995244
O       -1.17945587       5.07009770      10.38383171       0.01486269      -0.01583711      -0.00512870
O        6.26611418       1.17743935       4.74150543      -0.00553307      -0.00545796      -0.00168439
O        6.18691179       0.81095078      10.38465610       0.00108265      -0.02463983       0.02399970
O        3.81054935       5.43712461       4.74139849      -0.00735716      -0.00130938       0.00255532
O        3.09655267       0.55627314       8.29490212      -0.00702430      -0.00382557      -0.00021546
O       -2.18796667       5.97065882       7.07670601      -0.00396169       0.00402061       0.01060338
O        3.20149342       7.94235484       5.31270589       0.00575301      -0.00595073       0.01112010
O        0.74599104       3.68249587       5.31268767       0.00569485      -0.00276553       0.00866219
O        5.25339209       6.76922326       1.09796439      -0.19028220       0.39019721      -1.68847503
O       -1.10065561       5.43716227       4.74143226      -0.00514809      -0.00058989      -0.00082034
O        7.63286172       2.56981100       6.61720032      -0.00726151       0.00868992      -0.00396000
O        7.70900718       2.50943871       1.09796439      -0.19027636       0.39037878      -1.68883062
O        2.79777699       6.01396077       1.68922766       0.12446197      -0.28207700      -1.45214953
O       -2.11345319       6.01396077       1.68922766       0.12413954      -0.28205333      -1.45215998
O        5.96897923       3.50353892      10.54909518      -0.03261978      -0.04822980      -0.13368648
O        3.86774971       2.91012795       9.04238534       0.00730436       0.01656103       0.01171407
O        5.17732486       6.82962351       6.61702363      -0.00257973       0.01344764      -0.00639670
O        1.33990079       7.36380125       3.48815814      -0.18051862      -0.10178374       0.04359820
O        3.79551588       3.10401670       3.48815814      -0.17996469      -0.10271731       0.04426296
O        3.51174896       7.76456844      10.55065089       0.01315410       0.02035004       0.01497397
O       -3.57132940       7.36380125       3.48815814      -0.18088010      -0.10243813       0.04279459
O       -1.04393857       2.90996239       9.04228044      -0.00351403      -0.00018439      -0.00583840
O       -1.11571431       3.10401670       3.48815814      -0.17954260      -0.10311505       0.04363530
O        1.27632601       0.81031544      10.38392518      -0.00080447       0.02264864       0.01991127
O       -3.49929680       7.16994629       9.04249632      -0.00302118      -0.00672513      -0.00951604
O        1.41187632       7.17037085       9.04257589      -0.01643531      -0.00958666      -0.01340250
O        5.17873326       1.71071494       7.07689544      -0.00215042      -0.00025687       0.01420277
O        1.05538686       3.50488787      10.54973251      -0.04257671      -0.01395669      -0.01058120
O        0.26611975       6.82972643       6.61720367      -0.00647106       0.01271701      -0.00433082
O        0.34216190       6.76922326       1.09796439      -0.19031338       0.39033733      -1.68891358
O        2.72175092       2.56981357       6.61721752      -0.01290602       0.01277490      -0.00472434
O        2.79777699       2.50943871       1.09796439      -0.19006866       0.39054759      -1.68824209
O        2.72315469       5.97064476       7.07669819      -0.00315000      -0.00172892       0.00852173
O        0.34216190       1.75417623       1.68922766       0.12443300      -0.28204386      -1.45224628
O        5.25339209       1.75417623       1.68922766       0.12413663      -0.28184277      -1.45198287
O       -1.70963125       7.94231299       5.31264816       0.00675724      -0.00454105       0.00842886
F        3.33304158       4.34841849      14.35881093      -0.09396737      -0.02044899       0.17638362
F        3.34402529       3.59616978      12.17139588      -0.32406344      -0.58332918       0.33599622
F        5.34150214       4.13722398      13.21822068       0.16879588       0.03279497       0.17750426
Si       3.76749750       1.99202177       2.29942607      -0.27762163       0.08625549      -0.61703620
Si      -3.64738500       6.20591681       7.73804423      -0.01283880      -0.01475997      -0.00372519
Si      -3.59934778       6.25180632       2.29942607      -0.27674839       0.08836908      -0.61632090
Si      -1.19156904       1.94621918       7.73780952      -0.01762371      -0.00797177      -0.00544530
Si      -1.14373268       1.99202177       2.29942607      -0.27769696       0.08778747      -0.61564604
Si       4.79195354       4.14500522       9.57058741       0.00882750       0.05355475      -0.10078150
Si       7.19585140       0.01067888       4.09510202       0.00486088      -0.00491918       0.00219635
Si       1.27449258       2.28094054       5.92457714      -0.00840246      -0.00983293      -0.00213683
Si      -0.11644380       4.14238252       9.57236446      -0.03409212      -0.00317323      -0.02321883
Si      -0.17104612       4.27056215       4.09508214       0.00379016      -0.00344643       0.00014529
Si       2.33781680      -0.11700761       9.57234154       0.00257561      -0.00841702       0.00494849
Si       2.28460606       0.01068911       4.09508779       0.00651107      -0.00658466       0.00174535
Si       3.73023280       6.54069183       5.92482133      -0.00422675      -0.00745610      -0.00287237
Si       6.18599205       2.28101517       5.92452412      -0.00669522      -0.00849111       0.00086128
Si       3.71933074       1.94627659       7.73773007      -0.01102435      -0.01816822      -0.01757245
Si       1.31188241       6.25180632       2.29942607      -0.27787327       0.08742738      -0.61620227
Si       1.26380888       6.20596425       7.73773654      -0.01406231       0.00145146      -0.00411890
Si       4.74015724       4.27058290       4.09501396       0.00500881      -0.00444580      -0.00023085
Si       7.25035827      -0.11794755       9.57168554      -0.00115160      -0.00283581       0.01750866
Si      -1.18106179       6.54069683       5.92472239      -0.00881498      -0.00878237       0.00034660
P        4.07913812       3.23529135      13.51099428       0.16785372       0.01965769       0.22977605
88
Lattice="9.8224603672817 0.0 0.0 -4.911230183640904 8.519569098152305 0.0 5.83e-14 0.0360251379324295 26.999979658241696" Properties=species:S:1:pos:R:3:forces:R:3 energy=-614.0857695058553 stress="-0.0020215258488352358 -0.0013964324625540085 -0.0031772685305535486 -0.0013964324625540085 -0.0007192584772895533 0.00042326382000467934 -0.0031772685305535486 0.00042326382000467934 0.005722730767332935" free_energy=-614.0857695058553 pbc="T T F"
H        2.79777699       6.01314945       0.68922799       0.27521008       0.02663436       1.64448349
H        7.70900718       2.50862738       0.09796472       0.39938773      -0.15571366       1.93784690
H        3.75711468       6.06998966      10.45794334       0.08564148       0.51640861      -0.06795830
H        0.34216190       6.76841193       0.09796472       0.39939460      -0.15572003       1.93791866
H        2.79777699       2.50862738       0.09796472       0.39945494      -0.15571838       1.93780558
H        5.25339209       1.75336490       0.68922799       0.27524608       0.02665213       1.64445045
H       -2.11345319       6.01314945       0.68922799       0.27522881       0.02666129       1.64445998
H        1.29838653       1.80249121      10.46469926      -0.00039844       0.00235659      -0.00430872
H        0.34216190       1.75336490       0.68922799       0.27530777       0.02658980       1.64449679
H        6.21186938       1.80382103      10.46163777       0.02347959      -0.00953525      -0.05288075
H        6.82797002       3.97996615      10.52509240      -0.05321580      -0.02057127       0.01158699
H       -0.53962457       8.24024230      10.52329106      -0.00130224       0.01038424      -0.00246312
H        1.90847950       3.97949381      10.52048417      -0.00244397       0.04534499      -0.06012934
H        5.25339209       6.76841193       0.09796472       0.39945122      -0.15572385       1.93780144
H        4.37173951       8.24018995      10.52344426       0.01542430       0.01893117       0.00356267
H       -1.15747766       6.06183699      10.46554979      -0.00000550      -0.02931556       0.00372297
O        0.63972646       4.81599124       8.29458153      -0.00190945       0.00473887      -0.01667274
O        8.14063897       0.59189000       2.91987818      -0.12128323       0.06174621       0.14711026
O        8.00644486       0.55621514       8.29454859      -0.00933814      -0.00172437      -0.01251188
O        0.77379370       4.85167455       2.91987818      -0.11929701       0.06098945       0.14584467
O        5.65729027       3.68248483       5.31298494       0.00037004      -0.00294255       0.00407603
O        0.26759834       1.71077486       7.07759917       0.00261316      -0.00410497       0.00496506
O        5.68502388       4.85167455       2.91987818      -0.11820071       0.06208838       0.14416035
O       -1.39898018       7.76456025      10.55087216      -0.00642422       0.00287121       0.00057462
O        1.35476021       1.17724432       4.74141826      -0.00068062      -0.00977169      -0.00159662
O        5.55318906       4.81427183       8.29282980       0.09362980       0.02264808      -0.17097001
O        3.74517459       5.09556125      10.34552732      -0.13072152      -0.02601839      -0.19230992
O        3.22940879       0.59189000       2.91987818      -0.12090665       0.06211341       0.14643327
O       -1.17898971       5.06934847      10.38371099       0.01031743       0.01977300       0.00378802
O        6.26580476       1.17716849       4.74140193      -0.00238957      -0.00815903       0.00084569
O        6.18624593       0.81069508      10.38653205       0.05768341      -0.02077566      -0.00843723
O        3.81022227       5.43689355       4.74135547      -0.00437213      -0.00318063       0.00463927
O        3.09622749       0.55597893       8.29489530      -0.01366378      -0.00279996       0.00329228
O       -2.18809277       5.97091570       7.07722706      -0.00150926       0.00139614       0.00684198
O        3.20171232       7.94218320       5.31315004       0.00092623      -0.00252124       0.00777205
O        0.74627605       3.68236893       5.31308248      -0.00299747       0.00300300       0.00250156
O        5.25339209       6.76922326       1.09796439      -0.18991471       0.38994696      -1.68727418
O       -1.10089728       5.43702871       4.74125868      -0.00330908      -0.00141198       0.00415583
O        7.63247754       2.57029300       6.61704996      -0.00422889       0.00340716      -0.00693365
O        7.70900718       2.50943871       1.09796439      -0.18996089       0.39025905      -1.68783567
O        2.79777699       6.01396077       1.68922766       0.12411471      -0.28204529      -1.45155569
O       -2.11345319       6.01396077       1.68922766       0.12366395      -0.28197959      -1.45136101
O        5.96924391       3.50054337      10.54245856      -0.05064722       0.04022820      -0.11840507
O        3.86836868       2.91064403       9.04274941      -0.02950410      -0.00259270      -0.01828152
O        5.17719515       6.83037183       6.61665662      -0.00202702       0.00684975      -0.00097101
O        1.33990079       7.36380125       3.48815814      -0.17762793      -0.10052876       0.04728701
O        3.79551588       3.10401670       3.48815814      -0.17770745      -0.10129673       0.04698431
O        3.51188126       7.76538927      10.55124582       0.01614962       0.00026748       0.03676155
O       -3.57132940       7.36380125       3.48815814      -0.17819887      -0.10101530       0.04657776
O       -1.04438674       2.90979314       9.04193522      -0.00220361      -0.00903922      -0.01570343
O       -1.11571431       3.10401670       3.48815814      -0.17639760      -0.10062544       0.04803933
O        1.27640037       0.81097206      10.38485611       0.00548356      -0.00586563       0.00947190
O       -3.49933887       7.16976464       9.04213931      -0.00995420      -0.00734115      -0.00662813
O        1.41121482       7.17045016       9.04233670      -0.00938096      -0.01863380      -0.01630875
O        5.17851837       1.71064573       7.07779581       0.01382097       0.00071805      -0.00738914
O        1.05251259       3.50472741      10.54839009      -0.04711586      -0.07630867       0.04782985
O        0.26590509       6.83042162       6.61709282      -0.01608111       0.00730987      -0.01239559
O        0.34216190       6.76922326       1.09796439      -0.19004509       0.39010932      -1.68790801
O        2.72134589       2.57042850       6.61715628      -0.02249622       0.00909557      -0.01310298
O        2.79777699       2.50943871       1.09796439      -0.18981270       0.39035321      -1.68740637
O        2.72299356       5.97062239       7.07712191      -0.00695004      -0.00413863       0.00560956
O        0.34216190       1.75417623       1.68922766       0.12405237      -0.28187314      -1.45158509
O        5.25339209       1.75417623       1.68922766       0.12381662      -0.28171656      -1.45145103
O       -1.70932376       7.94215211       5.31300440       0.00221946      -0.00095527       0.00512117
F        3.32682413       4.34862036      14.36968296       0.06288871      -0.13223561      -0.00645182
F        3.32855214       3.56264302      12.19464310      -0.37724274      -0.27718840      -0.13237634
F        5.35033757       4.13792120      13.22847894       0.07604678       0.13770195       0.05679631
Si       3.76749750       1.99202177       2.29942607      -0.27724888       0.08618840      -0.61908802
Si      -3.64815933       6.20513054       7.73768394       0.00136710       0.00452665      -0.01410587
Si      -3.59934778       6.25180632       2.29942607      -0.27620053       0.08854596      -0.61934227
Si      -1.19226273       1.94582910       7.73712076      -0.00991989       0.00957879       0.01210637
Si      -1.14373268       1.99202177       2.29942607      -0.27737539       0.08715177      -0.61819683
Si       4.79012536       4.14959478       9.56505148       0.26947988      -0.20732549      -0.16840968
Si       7.19618723       0.01035189       4.09541671       0.00050543      -0.00061151      -0.00684608
Si       1.27397879       2.28043297       5.92443986      -0.00122862      -0.00496234       0.00320373
Si      -0.11645144       4.14185919       9.57164146      -0.12912458       0.01568399      -0.06904676
Si      -0.17083672       4.27041906       4.09530728       0.00297256      -0.00440385      -0.00720682
Si       2.33748479      -0.11723494       9.57254522       0.00083944      -0.00545508       0.00364997
Si       2.28496016       0.01033078       4.09539006       0.00196056      -0.00052619      -0.00757416
Si       3.72998896       6.54023684       5.92495012      -0.00047092      -0.00532544      -0.00588075
Si       6.18575884       2.28059089       5.92445943      -0.01754486      -0.00659825       0.00929934
Si       3.71850023       1.94542738       7.73655210       0.00668718       0.02057449       0.04300547
Si       1.31188241       6.25180632       2.29942607      -0.27710764       0.08787773      -0.61871173
Si       1.26301580       6.20577316       7.73701047       0.00088979       0.01167052       0.01420821
Si       4.74040311       4.27041884       4.09516193      -0.00002004      -0.00315148      -0.00420835
Si       7.25144859      -0.11914556       9.57174410      -0.10188266       0.05805758       0.02615023
Si      -1.18158527       6.54016374       5.92487028      -0.00160722      -0.00355805       0.00029758
P        4.08751701       3.23801167      13.51639055       0.18587146      -0.16442753       0.82264368
88
Lattice="9.8224603672817 0.0 0.0 -4.911230183640904 8.519569098152305 0.0 5.83e-14 0.0360251379324295 26.999979658241696" Properties=species:S:1:pos:R:3:forces:R:3 energy=-614.1282691345272 stress="-0.001889692864237855 -0.001443626206874719 -0.003150978140638256 -0.001443626206874719 -0.000736478718620554 0.00036573753384907376 -0.003150978140638256 0.00036573753384907376 0.005878150223373153" free_energy=-614.1282691345272 pbc="T T F"
H        2.79777699       6.01314945       0.68922799       0.27522658       0.02664227       1.64438219
H        7.70900718       2.50862738       0.09796472       0.39934026      -0.15570983       1.93770130
H        3.76154348       6.08658354      10.45077907       0.11658146       0.57292156      -0.06321307
H        0.34216190       6.76841193       0.09796472       0.39936127      -0.15573053       1.93778760