136
Lattice="11.6535095964132 0.0 0.0 0.0 10.0922353537395 0.0 0.0 0.0 24.290024512876798" Properties=species:S:1:pos:R:3:forces:R:3 energy=-707.6729728115091 stress="0.0016758639460467684 -4.05879774250472e-09 -3.839068619160199e-09 -4.05879774250472e-09 0.0016759072525464854 -9.180381788344922e-09 -3.839068619160199e-09 -9.180381788344922e-09 0.001208560491911855" free_energy=-707.6729728115091 pbc="T T T"
H        0.84125639       0.48569960       5.14501226      -0.03043802      -0.01762600       0.00722667
H        7.90121223       7.92584546       3.80430953       0.01671690       0.00984056       0.03647680
H        4.98783483       2.87972778       3.80430953       0.01670194       0.00983258       0.03648215
H       10.81458963       2.87972778       3.80430953       0.01670069       0.00983323       0.03648201
H        3.75229736       2.16638989       8.44932179       0.16967333       0.09585526      -0.22829489
H        9.57905216       2.16638989       8.44932179       0.16968808       0.09586340      -0.22828966
H        0.83891996       7.21250757       8.44932179       0.16968152       0.09585854      -0.22829296
H        6.66567476       7.21250757       8.44932179       0.16967380       0.09585502      -0.22829538
H        2.91337740       9.37889746       3.80430953       0.00016382      -0.01939389       0.03647808
H        7.90121223       2.16638989       8.44932179      -0.16785038       0.09901350      -0.22829538
H        4.98783483       7.21250757       8.44932179      -0.16786450       0.09902176      -0.22828967
H       10.81458963       7.21250757       8.44932179      -0.16786582       0.09902116      -0.22828982
H        2.91337740       1.68203923       7.07717563      -0.00000016       0.00000028       0.04128190
H        8.74013220       1.68203923       7.07717563       0.00000007       0.00000061       0.04128166
H       -0.00000000       6.72815690       7.07717563      -0.00000005       0.00000020       0.04128219
H        5.82675480       6.72815690       7.07717563      -0.00000011       0.00000018       0.04128160
H        2.07445743       2.16638989       8.44932179      -0.16785723       0.09901759      -0.22829204
H        6.66801119       0.48569960       5.14501226      -0.03044571      -0.01762928       0.00722901
H        3.75463379       5.53181728       5.14501226      -0.03044630      -0.01762964       0.00722967
H        9.58138859       5.53181728       5.14501226      -0.03043194      -0.01762246       0.00722411
H        2.91337740       0.71333789       8.44932179      -0.00182344      -0.19487189      -0.22829341
H        8.74013220       0.71333789       8.44932179      -0.00182346      -0.19487219      -0.22829338
H       -0.00000000       5.75945557       8.44932179      -0.00182337      -0.19487255      -0.22829367
H        5.82675480       5.75945557       8.44932179      -0.00182345      -0.19487231      -0.22829383
H        0.84125639       9.60653575       0.50000000       0.01606194      -0.00919173       0.28761763
H        6.66801119       9.60653575       0.50000000       0.01605324      -0.00918792       0.28762079
H        3.75463379       4.56041807       0.50000000       0.01605414      -0.00918867       0.28762002
H        9.58138859       4.56041807       0.50000000       0.01606922      -0.00919632       0.28761412
H        2.91337740       8.41019613       2.43216338      -0.00000026      -0.00000009       0.00764592
H        8.74013220       8.41019613       2.43216338       0.00000008      -0.00000039       0.00764586
H       -0.00000000       3.36407845       2.43216338      -0.00000034       0.00000025       0.00764628
H        5.82675480       3.36407845       2.43216338      -0.00000040      -0.00000000       0.00764586
H        7.89887581       5.53181728       5.14501226       0.03049053      -0.01755242       0.00722964
H        8.74013220       9.37889746       3.80430953       0.00016379      -0.01939336       0.03647829
H       -0.00000000       4.33277979       3.80430953       0.00016389      -0.01939276       0.03647821
H        5.82675480       4.33277979       3.80430953       0.00016383      -0.01939264       0.03647848
H        4.98549841       9.60653575       0.50000000      -0.01599912      -0.00931622       0.28761424
H       10.81225320       9.60653575       0.50000000      -0.01599960      -0.00931574       0.28761453
H        2.07212101       4.56041807       0.50000000      -0.01599173      -0.00931276       0.28761698
H        7.89887581       4.56041807       0.50000000      -0.01598416      -0.00930832       0.28762044
H        0.00000000       0.00000000       1.86675895       0.00000009      -0.00000014      -0.02327265
H        5.82675480       0.00000000       1.86675895       0.00000017       0.00000008      -0.02327217
H        2.91337740       5.04611768       1.86675895       0.00000008      -0.00000020      -0.02327169
H        8.74013220       5.04611768       1.86675895      -0.00000032      -0.00000024      -0.02327104
H        0.00000000       0.00000000       6.51177121      -0.00000004       0.00000025       0.23005129
H        5.82675480       0.00000000       6.51177121      -0.00000009       0.00000010       0.23005057
H        2.91337740       5.04611768       6.51177121       0.00000003       0.00000043       0.23005075
H        8.74013220       5.04611768       6.51177121      -0.00000021       0.00000044       0.23005057
H        8.74013220       4.07471847       5.14501226      -0.00004463       0.03517834       0.00722791
H        2.07445743       7.92584546       3.80430953       0.01670915       0.00983598       0.03648015
H        2.07212101       5.53181728       5.14501226       0.03048415      -0.01754831       0.00722642
H       10.81225320       0.48569960       5.14501226       0.03047569      -0.01754467       0.00722397
H        4.98549841       0.48569960       5.14501226       0.03047688      -0.01754429       0.00722342
H        5.82675480       0.97139921       0.50000000      -0.00007000       0.01850530       0.28761698
H       -0.00000000       0.97139921       0.50000000      -0.00006973       0.01850542       0.28761674
H        8.74013220       6.01751689       0.50000000      -0.00006940       0.01850125       0.28761853
H        2.91337740       6.01751689       0.50000000      -0.00006975       0.01850167       0.28761814
H        2.91337740       4.07471847       5.14501226      -0.00004501       0.03517774       0.00722774
H       -0.00000000       9.12083614       5.14501226      -0.00004488       0.03517774       0.00722786
H        5.82675480       9.12083614       5.14501226      -0.00004508       0.03517780       0.00722816
H        3.75229736       7.92584546       3.80430953      -0.01688087       0.00955706       0.03647717
H        9.57905216       7.92584546       3.80430953      -0.01686603       0.00954880       0.03648261
H        0.83891996       2.87972778       3.80430953      -0.01687533       0.00955548       0.03647793
H        6.66567476       2.87972778       3.80430953      -0.01688075       0.00955741       0.03647665
N        0.00000000       0.00000000       0.84163042       0.00000758       0.00000248      -0.47980347
N        2.91337740       8.41019613       3.45939454       0.00000893       0.00000057      -0.09162086
N        8.74013220       5.04611768       0.84163042      -0.00001592       0.00000382      -0.47980812
N        2.91337740       5.04611768       0.84163042       0.00000727       0.00000017      -0.47980984
N        5.82675480       0.00000000       0.84163042       0.00001586      -0.00000103      -0.47980633
N        8.74013220       8.41019613       3.45939454      -0.00001585       0.00000385      -0.09162312
N        8.74013220       5.04611768       5.48664268      -0.00001452      -0.00000362      -0.06863056
N        2.91337740       5.04611768       5.48664268       0.00000784      -0.00000050      -0.06863345
N        5.82675480       0.00000000       5.48664268       0.00001475      -0.00000435      -0.06863003
N        0.00000000       0.00000000       5.48664268       0.00000780      -0.00000754      -0.06862825
N        5.82675480       6.72815690       8.10440679       0.00001547      -0.00000499       0.56287469
N       -0.00000000       6.72815690       8.10440679       0.00000809      -0.00000797       0.56287200
N        8.74013220       1.68203923       8.10440679      -0.00001522      -0.00000510       0.56287463
N        2.91337740       1.68203923       8.10440679       0.00000769      -0.00000144       0.56287677
N        5.82675480       3.36407845       3.45939454       0.00001606       0.00000266      -0.09162311
N       -0.00000000       3.36407845       3.45939454       0.00001171       0.00000435      -0.09162431
F        5.82675480       4.77145700       5.96166062      -0.00092491       0.14452746      -0.23689751
F       -0.00000000       4.77145700       5.96166062      -0.00092465       0.14452767      -0.23689718
F        8.74013220       9.81757467       5.96166062      -0.00092457       0.14453309      -0.23689852
F        2.91337740       9.81757467       5.96166062      -0.00092525       0.14453267      -0.23689894
F        7.04760707       4.06893784       7.94608474      -0.06752778      -0.03863907      -0.13319381
F        1.22085227       4.06893784       7.94608474      -0.06752498      -0.03863832      -0.13319271
F        9.96098447       9.11505552       7.94608474      -0.06752343      -0.03863329      -0.13319140
F        4.13422967       9.11505552       7.94608474      -0.06752688      -0.03863445      -0.13319214
F        7.04558037       7.43184618       1.31664836       0.09503100       0.05637689       0.01284229
F        1.21882557       7.43184618       1.31664836       0.09503532       0.05637734       0.01284027
F        9.95895777       2.38572850       1.31664836       0.09503380       0.05637569       0.01284006
F        4.13220297       2.38572850       1.31664836       0.09502888       0.05637357       0.01284313
F        5.82675480       8.13787568       3.30107248       0.00051784       0.03228420       0.06667848
F       -0.00000000       8.13787568       3.30107248       0.00051780       0.03228507       0.06667926
F        8.74013220       3.09175800       3.30107248       0.00051662       0.03228134       0.06667732
F        2.91337740       3.09175800       3.30107248       0.00051804       0.03228179       0.06667744
F        1.69455183       7.70650686       5.96166062      -0.12470386      -0.07306514      -0.23689864
F        7.52130662       7.70650686       5.96166062      -0.12470141      -0.07306374      -0.23689760
F        4.60792923       2.66038918       5.96166062      -0.12470418      -0.07306559      -0.23689852
F       10.43468402       2.66038918       5.96166062      -0.12470588      -0.07306593      -0.23689766
F        2.91337740       7.00047735       7.94608474       0.00030147       0.07779944      -0.13319369
F        8.74013220       7.00047735       7.94608474       0.00030149       0.07779885      -0.13319307
F       -0.00000000       1.95435967       7.94608474       0.00030241       0.07780105      -0.13319405
F        5.82675480       1.95435967       7.94608474       0.00030212       0.07780075      -0.13319402
F       10.43468402       7.43184618       1.31664836      -0.09634376       0.05411434       0.01283982
F        4.60792923       7.43184618       1.31664836      -0.09634233       0.05411440       0.01283982
F        7.52130662       2.38572850       1.31664836      -0.09633587       0.05410964       0.01284352
F        1.69455183       2.38572850       1.31664836      -0.09633956       0.05411069       0.01284048
F        7.04760707       6.02329751       3.30107248       0.02769798      -0.01658678       0.06667675
F        1.22085227       6.02329751       3.30107248       0.02769965      -0.01658632       0.06667651
F        9.96098447       0.97717984       3.30107248       0.02770207      -0.01659002       0.06667851
F        4.13422967       0.97717984       3.30107248       0.02769754      -0.01658800       0.06667663
F        4.13220297       7.70650686       5.96166062       0.12562609      -0.07146175      -0.23689760
F        9.95895777       7.70650686       5.96166062       0.12562946      -0.07146287      -0.23689941
F        1.21882557       2.66038918       5.96166062       0.12562928      -0.07146261      -0.23689813
F        7.04558037       2.66038918       5.96166062       0.12562591      -0.07146193      -0.23689709
F        1.69252513       9.11505552       7.94608474       0.06722326      -0.03915763      -0.13319137
F        7.51927992       9.11505552       7.94608474       0.06722391      -0.03915811      -0.13319185
F        4.60590252       4.06893784       7.94608474       0.06722278      -0.03916061      -0.13319259
F       10.43265732       4.06893784       7.94608474       0.06722189      -0.03916067      -0.13319271
F        1.69252513       0.97717984       3.30107248      -0.02821693      -0.01569286       0.06667744
F        7.51927992       0.97717984       3.30107248      -0.02821577      -0.01569168       0.06667660
F        4.60590252       6.02329751       3.30107248      -0.02821857      -0.01569165       0.06667827
F       10.43265732       6.02329751       3.30107248      -0.02821979      -0.01569151       0.06667797
F        2.91337740       0.27466068       1.31664836       0.00130675      -0.11048750       0.01283994
F        8.74013220       0.27466068       1.31664836       0.00130684      -0.11048812       0.01283997
F       -0.00000000       5.32077836       1.31664836       0.00130772      -0.11048827       0.01283997
F        5.82675480       5.32077836       1.31664836       0.00130738      -0.11048848       0.01283979
Si       5.82675480       3.36407845       6.94380634       0.00000623      -0.00000137       0.98119516
Si      -0.00000000       3.36407845       6.94380634       0.00000255      -0.00000173       0.98119516
Si       8.74013220       8.41019613       6.94380634      -0.00000655      -0.00001298       0.98119456
Si       2.91337740       8.41019613       6.94380634       0.00000448      -0.00001183       0.98119433
Si       5.82675480       6.72815690       2.29879408       0.00000696      -0.00000775      -0.59709014
Si      -0.00000000       6.72815690       2.29879408       0.00000374      -0.00000944      -0.59708847
Si       8.74013220       1.68203923       2.29879408      -0.00000872       0.00000263      -0.59709073
Si       2.91337740       1.68203923       2.29879408       0.00000527       0.00000127      -0.59709038
136
Lattice="11.6535095964132 0.0 0.0 0.0 10.0922353537395 0.0 0.0 0.0 24.290024512876798" Properties=species:S:1:pos:R:3:forces:R:3 energy=-707.7486280604315 stress="0.0017096013895693996 -1.0867599744802638e-08 1.5955001389887148e-09 -1.0867599744802638e-08 0.0017096317779629576 3.0359921989391064e-09 1.5955001389887148e-09 3.0359921989391064e-09 0.0018213416286050098" free_energy=-707.7486280604315 pbc="T T T"
H        0.84082156       0.48544780       5.14511549       0.00082340       0.00049204      -0.00168549
H        7.90121223       7.92584546       3.80430953       0.01687769       0.00986746       0.04507578
H        4.98783483       2.87972778       3.80430953       0.01686213       0.00985888       0.04508112
H       10.81458963       2.87972778       3.80430953       0.01686165       0.00985984       0.04508066
H        3.75472127       2.16775925       8.44606043       0.17091902       0.09658458      -0.15061290
H        9.58147628       2.16775937       8.44606051       0.17090961       0.09657925      -0.15061586
H        0.84134399       7.21387698       8.44606046       0.17090546       0.09657299      -0.15061902
H        6.66809867       7.21387693       8.44606042       0.17092895       0.09659078      -0.15060996
H        2.91337740       9.37889746       3.80430953       0.00010656      -0.01954645       0.04507727
H        7.89881437       2.16780437       8.44606042      -0.16908785       0.09971698      -0.15061813
H        4.98543677       7.21392217       8.44606050      -0.16909233       0.09972237      -0.15061585
H       10.81219155       7.21392216       8.44606050      -0.16910866       0.09972735      -0.15061149
H        2.91337740       1.68203923       7.07776537       0.00000140       0.00000025       0.27781834
H        8.74013220       1.68203923       7.07776537       0.00000009      -0.00000047       0.27781846
H       -0.00000000       6.72815691       7.07776538       0.00000048      -0.00000230       0.27781823
H        5.82675480       6.72815691       7.07776537       0.00000297      -0.00000005       0.27781817
H        2.07205947       2.16780443       8.44606047      -0.16908845       0.09971927      -0.15061801
H        6.66757625       0.48544776       5.14511553       0.00082590       0.00049565      -0.00168709
H        3.75419884       5.53156543       5.14511554       0.00083127       0.00049866      -0.00169150
H        9.58095385       5.53156553       5.14511546       0.00082662       0.00049482      -0.00168798
H        2.91335135       0.71055401       8.44606045      -0.00181444      -0.19630272      -0.15061585
H        8.74010615       0.71055400       8.44606045      -0.00181606      -0.19630749      -0.15061396
H       -0.00002605       5.75667167       8.44606045      -0.00181392      -0.19631834      -0.15061112
H        5.82672875       5.75667168       8.44606045      -0.00181421      -0.19630839      -0.15061461
H        0.84125639       9.60653575       0.50000000       0.01587574      -0.00908434       0.28928680
H        6.66801119       9.60653575       0.50000000       0.01586775      -0.00908086       0.28928942
H        3.75463379       4.56041807       0.50000000       0.01586823      -0.00908169       0.28928919
H        9.58138859       4.56041807       0.50000000       0.01588289      -0.00908914       0.28928335
H        2.91337740       8.41019613       2.43216338      -0.00000032      -0.00000010       0.01214792
H        8.74013220       8.41019613       2.43216338       0.00000026      -0.00000043       0.01214810
H       -0.00000000       3.36407845       2.43216338      -0.00000024       0.00000006       0.01214833
H        5.82675480       3.36407845       2.43216338      -0.00000041      -0.00000010       0.01214738
H        7.89931138       5.53156653       5.14511554      -0.00084237       0.00046711      -0.00168680
H        8.74013220       9.37889746       3.80430953       0.00010623      -0.01954573       0.04507729
H       -0.00000000       4.33277979       3.80430953       0.00010648      -0.01954514       0.04507724
H        5.82675480       4.33277979       3.80430953       0.00010659      -0.01954609       0.04507715
H        4.98549841       9.60653575       0.50000000      -0.01581322      -0.00920907       0.28928340
H       10.81225320       9.60653575       0.50000000      -0.01581423      -0.00920886       0.28928349
H        2.07212101       4.56041807       0.50000000      -0.01580571      -0.00920525       0.28928644
H        7.89887581       4.56041807       0.50000000      -0.01579831      -0.00920123       0.28928954
H        0.00000000       0.00000000       1.86675895      -0.00000006      -0.00000006      -0.02030668
H        5.82675480       0.00000000       1.86675895       0.00000007       0.00000018      -0.02030727
H        2.91337740       5.04611768       1.86675895      -0.00000005      -0.00000024      -0.02030596
H        8.74013220       5.04611768       1.86675895      -0.00000019      -0.00000038      -0.02030614
H       -0.00000000       0.00000000       6.51505765       0.00000040      -0.00000048       0.04624630
H        5.82675480       0.00000000       6.51505764       0.00000252      -0.00000045       0.04624636
H        2.91337740       5.04611768       6.51505765       0.00000134       0.00000000       0.04622807
H        8.74013219       5.04611768       6.51505764      -0.00000010       0.00000044       0.04624571
H        8.74013156       4.07522102       5.14511551       0.00001830      -0.00095814      -0.00168646
H        2.07445743       7.92584546       3.80430953       0.01687024       0.00986219       0.04507903
H        2.07255649       5.53156659       5.14511549      -0.00083814       0.00046454      -0.00168889
H       10.81268857       0.48544897       5.14511546      -0.00085101       0.00047009      -0.00169001
H        4.98593379       0.48544897       5.14511545      -0.00082670       0.00045864      -0.00168269
H        5.82675480       0.97139921       0.50000000      -0.00006985       0.01829070       0.28928627
H       -0.00000000       0.97139921       0.50000000      -0.00006959       0.01829118       0.28928609
H        8.74013220       6.01751689       0.50000000      -0.00006922       0.01828724       0.28928722
H        2.91337740       6.01751689       0.50000000      -0.00006974       0.01828665       0.28928752
H        2.91337676       4.07522101       5.14511551       0.00001747      -0.00096153      -0.00168966
H       -0.00000064       9.12133868       5.14511551       0.00001736      -0.00095879      -0.00168607
H        5.82675415       9.12133868       5.14511552       0.00001828      -0.00095891      -0.00168586
H        3.75229736       7.92584546       3.80430953      -0.01698445       0.00968309       0.04507602
H        9.57905216       7.92584546       3.80430953      -0.01696829       0.00967398       0.04508148
H        0.83891996       2.87972778       3.80430953      -0.01697861       0.00968152       0.04507669
H        6.66567476       2.87972778       3.80430953      -0.01698415       0.00968348       0.04507517
N        0.00000000       0.00000000       0.84163042       0.00000863       0.00000270      -0.48322836
N        2.91337740       8.41019613       3.45939454       0.00000863       0.00000054      -0.10322152
N        8.74013220       5.04611768       0.84163042      -0.00001570       0.00000330      -0.48323247
N        2.91337740       5.04611768       0.84163042       0.00000728      -0.00000001      -0.48323516
N        5.82675480       0.00000000       0.84163042       0.00001550      -0.00000029      -0.48323063
N        8.74013220       8.41019613       3.45939454      -0.00001680       0.00000391      -0.10322397
N        8.74013199       5.04611763       5.48566224      -0.00000293      -0.00000366       0.12646955
N        2.91337751       5.04611767       5.48566220      -0.00001262      -0.00000167       0.12649694
N        5.82675501      -0.00000006       5.48566225      -0.00002027       0.00000482       0.12646364
N        0.00000011      -0.00000011       5.48566228       0.00001005      -0.00000323       0.12646993
N        5.82675502       6.72815683       8.11244786      -0.00002587      -0.00000430       0.09017736
N        0.00000012       6.72815679       8.11244782       0.00001701       0.00002139       0.09017887
N        8.74013198       1.68203915       8.11244786      -0.00000616       0.00001144       0.09018474
N        2.91337751       1.68203921       8.11244789      -0.00001819      -0.00000118       0.09018346
N        5.82675480       3.36407845       3.45939454       0.00001636       0.00000330      -0.10322288
N       -0.00000000       3.36407845       3.45939454       0.00001135       0.00000448      -0.10322475
F        5.82674159       4.77352167       5.95827637      -0.00087713       0.03198017      -0.11297042
F       -0.00001321       4.77352168       5.95827637      -0.00087675       0.03197982      -0.11297200
F        8.74011899       9.81963943       5.95827636      -0.00087626       0.03198375      -0.11297414
F        2.91336418       9.81963943       5.95827635      -0.00087696       0.03198560      -0.11297489
F        7.04664239       4.06838585       7.94418197      -0.00176301      -0.00067194      -0.04395245
F        1.21988763       4.06838586       7.94418198      -0.00176593      -0.00067400      -0.04395448
F        9.96001985       9.11450361       7.94418200      -0.00176880      -0.00067429      -0.04395528
F        4.13326500       9.11450360       7.94418199      -0.00176641      -0.00067444      -0.04395406
F        7.04558037       7.43184618       1.31664836       0.09676460       0.05739302       0.00681738
F        1.21882557       7.43184618       1.31664836       0.09676916       0.05739357       0.00681491
F        9.95895777       2.38572850       1.31664836       0.09676815       0.05739262       0.00681467
F        4.13220297       2.38572850       1.31664836       0.09676302       0.05739038       0.00681783
F        5.82675480       8.13787568       3.30107248       0.00045650       0.02920059       0.05678186
F       -0.00000000       8.13787568       3.30107248       0.00045646       0.02920175       0.05678302
F        8.74013220       3.09175800       3.30107248       0.00045539       0.02919812       0.05678087
F        2.91337740       3.09175800       3.30107248       0.00045689       0.02919734       0.05678007
F        1.69277034       7.70546307       5.95827635      -0.02726007      -0.01674949      -0.11297149
F        7.51952518       7.70546309       5.95827637      -0.02725661      -0.01674850      -0.11297176
F        4.60614774       2.65934538       5.95827636      -0.02725691      -0.01675041      -0.11297137
F       10.43290251       2.65934538       5.95827637      -0.02726126      -0.01675154      -0.11297256
F        2.91338171       7.00158877       7.94418197       0.00030173       0.00186839      -0.04395233
F        8.74013650       7.00158876       7.94418198       0.00030370       0.00186845      -0.04395424
F        0.00000432       1.95547112       7.94418197       0.00030103       0.00186785      -0.04395376
F        5.82675911       1.95547111       7.94418197       0.00030101       0.00186684      -0.04395347
F       10.43468402       7.43184618       1.31664836      -0.09809131       0.05510791       0.00681384
F        4.60792923       7.43184618       1.31664836      -0.09808994       0.05510803       0.00681425
F        7.52130662       2.38572850       1.31664836      -0.09808377       0.05510319       0.00681783
F        1.69455183       2.38572850       1.31664836      -0.09808649       0.05510379       0.00681586
F        7.04760707       6.02329751       3.30107248       0.02505839      -0.01499192       0.05677992
F        1.22085227       6.02329751       3.30107248       0.02506015      -0.01499188       0.05677971
F        9.96098447       0.97717984       3.30107248       0.02506221      -0.01499520       0.05678209
F        4.13422967       0.97717984       3.30107248       0.02505777      -0.01499316       0.05677992
F        4.13399763       7.70548597       5.95827637       0.02814000      -0.01523066      -0.11297277
F        9.96075248       7.70548596       5.95827634       0.02813595      -0.01523012      -0.11297060
F        1.22062028       2.65936828       5.95827636       0.02813741      -0.01523090      -0.11297125
F        7.04737503       2.65936829       5.95827638       0.02813568      -0.01523051      -0.11297158
F        1.69348546       9.11449612       7.94418200       0.00146628      -0.00119564      -0.04395370
F        7.52024026       9.11449612       7.94418200       0.00146741      -0.00119424      -0.04395397
F        4.60686285       4.06837840       7.94418199       0.00146657      -0.00119508      -0.04395484
F       10.43361764       4.06837840       7.94418198       0.00146169      -0.00119430      -0.04395075
F        1.69252513       0.97717984       3.30107248      -0.02551581      -0.01420412       0.05678054
F        7.51927992       0.97717984       3.30107248      -0.02551527      -0.01420304       0.05678043
F        4.60590252       6.02329751       3.30107248      -0.02551760      -0.01420278       0.05678165
F       10.43265732       6.02329751       3.30107248      -0.02551962      -0.01420289       0.05678230
F        2.91337740       0.27466068       1.31664836       0.00132029      -0.11249663       0.00681515
F        8.74013220       0.27466068       1.31664836       0.00132013      -0.11249770       0.00681503
F       -0.00000000       5.32077836       1.31664836       0.00132154      -0.11249854       0.00681431
F        5.82675480       5.32077836       1.31664836       0.00132114      -0.11249791       0.00681488
Si       5.82675489       3.36407843       6.95782341      -0.00000649       0.00000094       0.35268389
Si       0.00000004       3.36407843       6.95782341       0.00000533       0.00000189       0.35268425
Si       8.74013210       8.41019594       6.95782341      -0.00000563      -0.00000483       0.35268860
Si       2.91337746       8.41019596       6.95782340      -0.00000397      -0.00000382       0.35268806
Si       5.82675480       6.72815690       2.29879408       0.00000690      -0.00000779      -0.56498882
Si      -0.00000000       6.72815690       2.29879408       0.00000417      -0.00000918      -0.56498704
Si       8.74013220       1.68203923       2.29879408      -0.00000814       0.00000196      -0.56498954
Si       2.91337740       1.68203923       2.29879408       0.00000384       0.00000175      -0.56498889
136
Lattice="11.6535095964132 0.0 0.0 0.0 10.0922353537395 0.0 0.0 0.0 24.290024512876798" Properties=species:S:1:pos:R:3:forces:R:3 energy=-707.7792717644104 stress="0.002044564257507093 3.5023306117644683e-09 8.51318844256857e-09 3.5023306117644683e-09 0.002044581144978028 -5.6308102509774926e-09 8.51318844256857e-09 -5.6308102509774926e-09 0.0017605098014110672" free_energy=-707.7792717644104 pbc="T T T"
H        0.84073662       0.48539897       5.14510097      -0.01254799      -0.00713994       0.02261228