ITEM: TIMESTEP
0
ITEM: NUMBER OF ATOMS
178
ITEM: BOX BOUNDS pp pp ff
0.0000000000000000e+00 1.1653169955468799e+01
0.0000000000000000e+00 1.0091941216053600e+01
0.0000000000000000e+00 3.7142611000000002e+01
ITEM: ATOMS id type element xu yu zu fx fy fz
1 1 F 7.81752 7.72902 0.816065 0 0 0
2 1 F 6.59678 2.25267 7.40122 -0.056924 0.0486701 -0.0814309
3 1 F 11.2046 7.72902 0.816065 0 0 0
4 1 F 5.37798 7.72902 0.816065 0 0 0
5 1 F 8.29127 2.68305 0.816065 0 0 0
6 1 F 2.46469 2.68305 0.816065 0 0 0
7 1 F 7.8184 6.32004 2.80035 0 0 0
8 1 F 1.99181 6.32004 2.80035 0 0 0
9 1 F 10.7317 1.27407 2.80035 0 0 0
10 1 F 4.9051 1.27407 2.80035 0 0 0
11 1 F 4.90545 8.00072 5.41686 -0.00360092 0.00222478 -0.0126474
12 1 F 10.732 8.00072 5.41686 0.0189964 -0.0239493 -0.051381
13 1 F 1.99216 2.95475 5.41686 0.0147792 -0.00525316 -0.0216494
14 1 F 7.81875 2.95475 5.41686 -0.00805865 0.0115403 -0.0187096
15 1 F 2.46547 9.41168 7.40123 0.0375084 -0.000340778 -0.0140695
16 1 F 8.29205 9.41168 7.40123 -0.00767414 -0.0624165 -0.1144
17 1 F 5.37876 4.36571 7.40122 0.00613785 -0.00131723 -0.00772819
18 1 F 11.2053 4.36571 7.40122 -0.0512438 0.00179087 -0.0161483
19 1 F 0.770192 2.25267 7.40122 0.0352977 0.0296414 -0.0344299
20 1 F 2.46381 1.27407 2.80035 0 0 0
21 1 F 9.51007 7.29864 7.40122 -0.0676199 0.0440661 -0.21271
22 1 F 11.2024 2.95642 5.41686 0.0147878 0.0135889 -0.0106728
23 1 F 6.59871 5.07124 5.41686 -0.00586616 0.00407247 -0.00791437
24 1 F 3.68542 10.1172 5.41686 0.00326356 0.00207487 -0.00782651
25 1 F 7.81771 4.36402 7.40122 0.00555476 0.0563819 0.00867926
26 1 F 1.99113 4.36402 7.40122 -0.00374945 -0.041022 -0.0526616
27 1 F 10.731 9.41 7.40122 -0.00460505 -0.0285173 -0.0958958
28 1 F 4.90442 9.41 7.40122 -0.0285834 -0.00896908 -0.0182591
29 1 F 9.29473 1.6238 15.2357 -0.052396 0.0384661 -0.0176817
30 1 F 1.99093 7.72902 0.816065 0 0 0
31 1 F 10.7308 2.68305 0.816065 0 0 0
32 1 F 4.90423 2.68305 0.816065 0 0 0
33 1 F 6.59775 8.43426 2.80035 0 0 0
34 1 F 0.771166 8.43426 2.80035 0 0 0
35 1 F 9.51104 3.38829 2.80035 0 0 0
36 1 F 3.68446 3.38829 2.80035 0 0 0
37 1 F 2.4625 8.00239 5.41686 0.0185531 0.00772517 -0.0146372
38 1 F 8.28909 8.00239 5.41686 -0.03445 -0.0227906 -0.0522257
39 1 F 5.37579 2.95642 5.41686 -0.0209304 0.00294958 -0.0225049
40 1 F 3.68348 7.29864 7.40122 0.0115917 0.0264558 -0.0146266
41 1 F 0.772129 5.07124 5.41686 -0.00143874 -0.0089016 -0.0121136
42 1 F 8.2904 1.27407 2.80035 0 0 0
43 1 F 11.2037 6.32004 2.80035 0 0 0
44 1 F 9.83022 3.62082 12.2627 0.463439 -0.255967 0.959525
45 1 F 11.7074 4.46213 10.5365 0.426318 -0.154529 -0.044612
46 1 F 10.7761 5.92346 12.3247 0.101947 -0.0118135 0.166753
47 1 F 3.01486 9.20966 14.3209 0.125032 -0.380526 -0.212495
48 1 F 3.86353 6.70991 13.8284 -0.202775 0.0499761 -0.308131
49 1 F 6.02902 7.6911 12.5797 -0.148224 0.1141 -0.310165
50 1 F 5.18035 10.1908 13.0721 -0.208824 -0.146502 0.0828856
51 1 F 5.32715 8.44891 14.8455 -0.0544871 0.33848 0.0405135
52 1 F 3.29154 0.433491 16.5809 0.253273 0.354463 0.501507
53 1 F 2.47772 2.99043 16.6868 0.217185 0.0473138 0.296226
54 1 F 5.00493 3.77589 17.1426 0.0407109 0.353445 0.523703
55 1 F 5.81874 1.21895 17.0367 -0.474548 0.0107237 0.0594972
56 1 F 4.38997 2.24735 15.2755 0.0833933 -0.050098 0.372996
57 1 F 10.7857 0.144566 16.5734 -0.116201 0.07194 0.139878
58 1 F 8.10735 0.004309 16.7081 0.349894 0.0913743 0.0691421
59 1 F 7.98715 2.66058 17.0839 -0.058483 0.166022 0.154484
60 1 F 10.6655 2.80084 16.9492 -0.124823 -0.140361 0.161858
61 1 F 8.36111 5.80456 11.7293 0.145322 -0.0981502 -0.103225
62 1 F 5.37711 6.32004 2.80035 0 0 0
63 1 F 10.2383 6.64588 10.0032 0.100827 0.0672142 -0.00221713
64 1 F 5.03329 6.17951 16.1101 0.141654 -0.112351 0.270914
65 1 F 3.68446 0.570344 0.816065 0 0 0
66 1 F 9.51104 0.570344 0.816065 0 0 0
67 1 F 0.771166 5.61631 0.816065 0 0 0
68 1 F 6.59775 5.61631 0.816065 0 0 0
69 1 F 8.14581 2.77604 10.4715 -0.328958 0.603977 -1.07351
70 1 F 9.20234 0.307758 10.5241 0.237601 -0.242406 -0.533754
71 1 F 8.31268 -0.019485 13.0367 0.0113203 0.00473561 -0.133201
72 1 F 7.25615 2.4488 12.9841 0.0605046 -0.0449333 -0.179767
73 1 F 6.84777 0.774844 11.1863 -0.00513132 0.0334833 -0.286209
74 1 F -0.013965 0.358033 13.6265 -0.108319 -0.0369015 -0.129631
75 1 F 2.25097 0.742641 12.236 0.213484 -0.22037 -0.408146
76 1 F 2.23404 3.33779 12.9262 -0.0928339 -0.0527034 -0.039119
77 1 F -0.0309 2.95318 14.3167 0.198686 -0.070482 -0.208557
78 1 F 1.97543 1.50397 14.5908 -0.411912 0.0447996 -0.360935
79 1 F 7.4047 6.98343 17.0804 0.0868601 0.113976 0.181237
80 1 F 8.61023 4.9341 15.8321 0.147886 0.126351 -0.0706054
81 1 F 6.23881 4.13018 14.8617 0.251784 0.310916 0.0366676
82 1 F 7.04178 6.47939 14.669 0.241957 -0.120609 -0.0646168
83 1 F 9.51201 10.1172 5.41686 -0.0070041 0.0235401 -0.0646527
84 2 H 1.61272 0.782748 4.7083 -0.0037386 -0.00110835 0.0176173
85 2 H 0.771166 0.296822 6.07565 -0.0175903 -0.00429173 0.0194585
86 2 H 6.59775 0.296822 6.07565 0.0158898 -0.00245119 0.0232369
87 2 H 3.68381 0.993427 7.92167 -0.000117501 -0.0117543 0.00630315
88 2 H 9.51104 5.34279 1.36921 0 0 0
89 2 H 3.68446 5.34279 1.36921 0 0 0
90 2 H 6.59775 0.296822 1.36921 0 0 0
91 2 H 0.771166 0.296822 1.36921 0 0 0
92 2 H 8.67011 4.85728 0 0 0 0
93 2 H 2.84352 4.85728 0 0 0 0
94 2 H 11.5834 9.90325 0 0 0 0
95 2 H 5.75681 9.90325 0 0 0 0
96 2 H 6.59775 4.62811 3.30385 0 0 0
97 2 H 9.51104 1.97881 6.59028 0.014404 0.00129306 0.038416
98 2 H 0.771166 7.02478 6.59028 0.00499423 -0.00365814 0.0328306
99 2 H 3.68446 5.34279 6.07565 -0.00532992 0.000759642 0.0159576
100 2 H 6.5971 6.0394 7.92167 0.00104876 0.00482955 0.0028124
101 2 H 2.83141 2.47207 7.92167 -0.0238779 0.0103131 -0.00073704
102 2 H 7.4393 0.782748 4.7083 0.00348828 -0.00548361 0.0251114
103 2 H 4.52601 5.82872 4.7083 -0.00100836 -0.000799333 0.0164626
104 2 H 10.3526 5.82872 4.7083 -0.00535317 0.0048786 0.02156
105 2 H 0.771166 4.62811 3.30385 0 0 0
106 2 H 9.51104 9.67408 3.30385 0 0 0
107 2 H 8.66944 5.82864 4.7083 0.00718949 0.0033255 0.0229797
108 2 H 6.59775 3.6608 1.93343 0 0 0
109 2 H 0.771166 3.6608 1.93343 0 0 0
110 2 H 1.6121 9.90325 0 0 0 0
111 2 H 9.51104 8.70677 1.93343 0 0 0
112 2 H 3.68446 8.70677 1.93343 0 0 0
113 2 H 10.352 4.85728 0 0 0 0
114 2 H 6.59775 7.02478 6.59028 0.00368552 0.00425959 0.00894978
115 2 H 4.52539 4.85728 0 0 0 0
116 2 H 9.51104 5.34279 6.07565 0.000236703 0.013531 0.0106645
117 2 H 2.84674 8.22312 3.30385 0 0 0
118 2 H 8.67333 8.22312 3.30385 0 0 0
119 2 H 5.76004 3.17715 3.30385 0 0 0
120 2 H 11.5866 3.17715 3.30385 0 0 0
121 2 H 4.53815 2.47094 7.92167 0.0326902 0.00236386 0.000464177
122 2 H 9.51039 0.993428 7.92167 -0.0237334 0.000731074 0.154488
123 2 H 10.3647 2.47094 7.92167 -0.0187953 -0.0594261 0.0101114
124 2 H 1.62486 7.51691 7.92167 -0.0422308 -0.0239049 -0.00420013
125 2 H 7.45144 7.51691 7.92167 0.0573108 0.0331698 0.0423856
126 2 H 3.68446 9.67408 3.30385 0 0 0
127 2 H 8.658 2.47207 7.92167 -0.0188975 -0.0676145 0.115186
128 2 H 0.770517 6.0394 7.92167 -0.0304413 0.0256819 0.0899254
129 2 H 5.74471 7.51804 7.92167 0.014968 0.00374171 0.00188061
130 2 H 11.5713 7.51804 7.92167 -0.0499029 -0.0303238 0.114055
131 2 H 9.51109 4.37102 4.7083 0.000749083 0.00191883 0.020636
132 2 H 3.68446 1.97881 6.59028 -0.00192471 0.00282271 -0.00371411
133 2 H 1.60888 3.17715 3.30385 0 0 0
134 2 H 10.3488 8.22312 3.30385 0 0 0
135 2 H 4.52217 8.22312 3.30385 0 0 0
136 2 H 6.5978 9.41699 4.7083 0.00773382 0.00328879 0.0224081
137 2 H 0.771214 9.41699 4.7083 -0.00670965 0.000535813 0.0228576
138 2 H 3.68451 4.37102 4.7083 -0.000387432 -0.000256403 0.0165907
139 2 H 3.68446 6.31382 0 0 0 0
140 2 H 9.51104 6.31382 0 0 0 0
141 2 H 0.771166 1.26785 0 0 0 0
142 2 H 6.59775 1.26785 0 0 0 0
143 2 H 5.75615 0.782665 4.7083 0.0045056 -0.00115639 0.0178886
144 2 H 11.5827 0.782665 4.7083 -0.00422632 -0.00612646 0.0269293
145 2 H 2.84286 5.82864 4.7083 -0.00135261 -0.00096968 0.0195443
146 2 H 7.43546 3.17715 3.30385 0 0 0
147 2 H 7.43869 9.90325 0 0 0 0
148 3 I 9.39988 1.37012 17.0624 0.157765 -0.291563 -0.195163
149 3 I 8.43192 1.46681 11.8374 -0.381683 -1.18099 1.68021
150 3 I 9.92544 5.01743 10.9581 -0.603737 1.26734 -0.913828
151 3 I 4.40381 8.45059 13.2456 0.0734862 0.248049 0.255903
152 3 I 4.11277 2.08376 17.0945 -0.667385 -1.20776 -0.700622
153 3 I 0.983074 1.89837 13.0835 -0.0465181 0.467872 0.437774
154 3 I 6.78948 5.42145 16.1621 0.0862703 -0.026864 -0.435757
155 4 N 6.59775 3.6608 2.95976 0 0 0
156 4 N 6.59775 0.296822 0.342545 0 0 0
157 4 N 3.68446 1.97881 7.62088 0.0026072 0.000605468 -0.012538
158 4 N 9.51104 1.97881 7.62088 0.0165749 0.0131057 -0.129961
159 4 N 0.771166 7.02478 7.62088 0.0393058 0.0173518 -0.100276
160 4 N 0.771166 3.6608 2.95976 0 0 0
161 4 N 6.59775 7.02478 7.62088 -0.00318121 -0.0095008 -0.0124577
162 4 N 0.771167 0.296821 5.04741 0.000536835 0.00291253 0.00610145
163 4 N 0.771166 0.296822 0.342545 0 0 0
164 4 N 3.68446 8.70677 2.95976 0 0 0
165 4 N 9.51104 5.34279 0.342545 0 0 0
166 4 N 3.68446 5.34279 0.342545 0 0 0
167 4 N 6.59775 0.296822 5.04741 -0.00146216 0.00448491 0.00453274
168 4 N 9.51104 8.70677 2.95976 0 0 0
169 4 N 9.51104 5.34279 5.04741 0.00186347 -0.00569357 0.00908534
170 4 N 3.68446 5.34279 5.04741 0.00017724 -0.000707604 0.0062068
171 5 Si 9.51104 1.97881 1.80169 0 0 0
172 5 Si 6.59775 3.6608 6.42034 0.0294011 -0.0812713 0.119738
173 5 Si 0.771166 3.6608 6.42034 0.00701413 -0.0154775 0.12641
174 5 Si 3.68446 8.70677 6.42034 -0.0172565 -0.00634684 0.0867917
175 5 Si 6.59775 7.02478 1.80169 0 0 0
176 5 Si 0.771166 7.02478 1.80169 0 0 0
177 5 Si 3.68446 1.97881 1.80169 0 0 0
178 5 Si 9.51104 8.70677 6.42034 0.0165931 0.0327147 0.290639
ITEM: TIMESTEP
100
ITEM: NUMBER OF ATOMS
178
ITEM: BOX BOUNDS pp pp ff
0.0000000000000000e+00 1.1653169955468799e+01
0.0000000000000000e+00 1.0091941216053600e+01
0.0000000000000000e+00 3.7142611000000002e+01
ITEM: ATOMS id type element xu yu zu fx fy fz
1 1 F 7.81752 7.72902 0.816065 0 0 0
2 1 F 6.45402 2.24787 7.60961 0.431438 0.360317 -0.431486
3 1 F 11.2046 7.72902 0.816065 0 0 0
4 1 F 5.37798 7.72902 0.816065 0 0 0
5 1 F 8.29127 2.68305 0.816065 0 0 0
6 1 F 2.46469 2.68305 0.816065 0 0 0
7 1 F 7.8184 6.32004 2.80035 0 0 0
8 1 F 1.99181 6.32004 2.80035 0 0 0
9 1 F 10.7317 1.27407 2.80035 0 0 0
10 1 F 4.9051 1.27407 2.80035 0 0 0
11 1 F 4.83939 7.97729 5.33942 0.368083 -0.246434 0.228318
12 1 F 10.6055 7.94813 5.35752 0.345394 0.0602505 0.144754
13 1 F 2.00932 2.82402 5.24927 0.253172 0.126805 0.288999
14 1 F 7.8094 3.04565 5.59658 -0.330765 0.173204 0.523939
15 1 F 2.46292 9.48871 7.31441 0.271566 -0.0915012 -0.0546536
16 1 F 8.09296 9.28633 7.25664 0.536794 0.0457669 0.142986
17 1 F 5.36315 4.42666 7.62676 -0.246943 -0.0615668 -0.24178
18 1 F 11.3556 4.36127 7.29849 0.147132 0.0530328 0.152834
19 1 F 0.984344 2.30217 7.43998 0.0880919 0.410302 -0.449885
20 1 F 2.46381 1.27407 2.80035 0 0 0
21 1 F 9.38928 7.20503 7.3677 0.00405951 0.000930065 -0.272201
22 1 F 11.2896 2.87359 5.44623 -0.0229867 -0.15203 -0.0983119
23 1 F 6.50335 5.14809 5.64101 0.291651 -0.41672 0.0832569
24 1 F 3.75756 10.0764 5.36086 -0.26658 0.0999798 0.104766
25 1 F 7.72629 4.36683 7.67769 0.481811 -0.106581 -0.251191
26 1 F 2.25733 4.42174 7.13258 -0.277285 -0.497573 0.134714
27 1 F 10.6204 9.25538 7.44098 -0.122517 -0.00882713 -0.199493
28 1 F 5.00573 9.38604 7.33198 -0.323788 -0.0142613 -0.0950149
29 1 F 9.21362 1.60724 15.2322 -0.111728 0.063641 -0.181957
30 1 F 1.99093 7.72902 0.816065 0 0 0
31 1 F 10.7308 2.68305 0.816065 0 0 0
32 1 F 4.90423 2.68305 0.816065 0 0 0
33 1 F 6.59775 8.43426 2.80035 0 0 0
34 1 F 0.771166 8.43426 2.80035 0 0 0
35 1 F 9.51104 3.38829 2.80035 0 0 0
36 1 F 3.68446 3.38829 2.80035 0 0 0
37 1 F 2.43686 7.94481 5.42973 0.31719 0.29805 0.20443
38 1 F 8.23795 7.9135 5.338 -0.0407907 -0.0265064 -0.0420741
39 1 F 5.38267 2.93914 5.57811 0.381507 0.488551 0.0918279
40 1 F 3.65345 7.38546 7.47547 0.113853 0.109351 -0.281222
41 1 F 0.868225 5.01676 5.33236 -0.086271 0.0395919 -0.185888
42 1 F 8.2904 1.27407 2.80035 0 0 0
43 1 F 11.2037 6.32004 2.80035 0 0 0
44 1 F 10.1389 3.58998 12.3749 -0.158682 0.42444 -0.447308
45 1 F 11.8765 4.53158 10.4771 -0.619599 0.285319 0.199662
46 1 F 10.7742 6.07993 12.2245 0.408202 0.0955292 0.794635
47 1 F 2.94764 8.88267 14.3721 0.536729 -0.0555605 -0.290557
48 1 F 4.12029 6.62103 13.7584 0.102344 0.471027 -0.272148
49 1 F 5.98003 7.83989 12.3274 0.51045 -0.129296 -0.3263
50 1 F 4.95913 10.2679 12.881 -0.0962127 -0.30628 0.247606
51 1 F 5.46261 8.58654 14.6846 -0.151349 0.271089 0.0582833
52 1 F 3.22484 0.39978 16.7174 0.0556597 0.466269 0.128703
53 1 F 2.50054 3.07645 16.8921 -0.349505 -0.0175878 0.534344
54 1 F 5.01305 3.7099 17.6972 -0.0798322 -0.342604 -0.242044
55 1 F 5.71349 1.14197 16.9474 -0.210025 0.14102 0.152805
56 1 F 4.2273 2.44408 15.4635 0.426172 -0.307877 0.351681
57 1 F 10.858 0.224208 16.5985 -0.661474 0.377911 0.179969
58 1 F 8.21496 -0.104329 16.7546 0.156377 0.312954 0.0175624
59 1 F 7.98736 2.76808 17.1447 0.193694 -0.317036 -0.0373589
60 1 F 10.6616 2.80904 16.8912 -0.264299 -0.115296 0.173956
61 1 F 8.36337 5.74653 11.6352 0.0362144 -0.12721 0.00658644
62 1 F 5.37711 6.32004 2.80035 0 0 0
63 1 F 10.2234 6.68365 9.96015 -0.123168 -0.405567 -0.0896601
64 1 F 5.18021 6.22005 16.4032 0.128828 -0.234766 0.0849796
65 1 F 3.68446 0.570344 0.816065 0 0 0
66 1 F 9.51104 0.570344 0.816065 0 0 0
67 1 F 0.771166 5.61631 0.816065 0 0 0
68 1 F 6.59775 5.61631 0.816065 0 0 0
69 1 F 8.38514 2.85426 10.2757 -0.275083 0.183193 0.150982
70 1 F 9.50967 0.554629 10.4099 -0.446889 0.0305372 0.61997
71 1 F 8.06958 -0.0473204 12.9366 0.291907 0.963543 -0.750305
72 1 F 7.02159 2.53121 12.7593 0.585672 -0.318043 -0.439274
73 1 F 6.87415 0.860913 10.9019 0.162677 -0.0607677 -0.374814
74 1 F -0.25216 0.269008 13.3344 0.180019 0.536698 -0.136852
75 1 F 2.21599 0.664153 12.1507 -0.489893 0.419209 0.215364
76 1 F 2.14888 3.29085 13.0494 -0.180215 -0.479686 0.127477
77 1 F -0.104976 2.8244 14.3273 0.178325 -0.139794 0.0468078
78 1 F 1.71741 1.1972 14.5718 0.0394268 0.231908 -0.189574
79 1 F 7.55806 6.97631 17.1389 0.208552 0.353323 0.44568
80 1 F 8.79162 5.14872 15.7383 -0.460864 -0.0744327 0.00803072
81 1 F 6.27719 4.24912 14.8471 0.236727 0.183708 0.327862
82 1 F 6.98636 6.60201 14.7447 0.323728 -0.187931 0.000731534
83 1 F 9.46809 10.1363 5.48888 -0.0762833 -0.411016 0.00780399
84 2 H 1.62819 0.48174 4.57312 -0.546118 -0.198204 -0.103208
85 2 H 1.09606 -0.00531933 6.06338 -0.411132 0.196009 -0.805634
86 2 H 6.28441 -0.0245158 6.09902 0.36481 -0.0367933 -0.306248
87 2 H 3.26354 1.13137 7.85191 -0.314697 -0.21327 0.0218085
88 2 H 9.51104 5.34279 1.36921 0 0 0
89 2 H 3.68446 5.34279 1.36921 0 0 0
90 2 H 6.59775 0.296822 1.36921 0 0 0
91 2 H 0.771166 0.296822 1.36921 0 0 0
92 2 H 8.67011 4.85728 0 0 0 0
93 2 H 2.84352 4.85728 0 0 0 0
94 2 H 11.5834 9.90325 0 0 0 0
95 2 H 5.75681 9.90325 0 0 0 0
96 2 H 6.59775 4.62811 3.30385 0 0 0
97 2 H 9.2053 1.28122 7.07153 0.0927132 -0.0716954 0.00692033
98 2 H 0.667413 6.45845 6.99047 -0.000988296 -0.286048 0.16001
99 2 H 3.42912 5.0894 5.97736 0.172408 0.239421 -0.337554
100 2 H 6.01123 6.19792 7.97791 0.385507 0.573042 0.10681
101 2 H 3.37402 2.82935 7.75014 -0.0557313 -0.0846576 -0.0721354
102 2 H 7.53851 0.462427 5.0472 1.6481 -0.36869 -0.059479
103 2 H 4.82443 5.62784 5.05796 -0.844166 -0.127491 0.344399
104 2 H 9.96413 5.36769 4.23214 -0.098881 -0.277295 0.721098
105 2 H 0.771166 4.62811 3.30385 0 0 0
106 2 H 9.51104 9.67408 3.30385 0 0 0
107 2 H 8.81206 6.06116 5.20218 0.168613 0.181368 0.183894
108 2 H 6.59775 3.6608 1.93343 0 0 0
109 2 H 0.771166 3.6608 1.93343 0 0 0
110 2 H 1.6121 9.90325 0 0 0 0
111 2 H 9.51104 8.70677 1.93343 0 0 0
112 2 H 3.68446 8.70677 1.93343 0 0 0
113 2 H 10.352 4.85728 0 0 0 0
114 2 H 6.85664 7.20234 6.9303 -0.0665219 0.0275608 0.610215
115 2 H 4.52539 4.85728 0 0 0 0
116 2 H 10.1269 5.31116 5.9283 0.664935 0.0569778 0.58883
117 2 H 2.84674 8.22312 3.30385 0 0 0
118 2 H 8.67333 8.22312 3.30385 0 0 0
119 2 H 5.76004 3.17715 3.30385 0 0 0
120 2 H 11.5866 3.17715 3.30385 0 0 0
121 2 H 4.77491 1.8768 7.66966 0.373764 0.0859751 0.203562
122 2 H 9.77221 1.14025 8.61878 0.172987 -0.360591 0.741524
123 2 H 10.2279 2.46332 7.63531 0.357703 -0.147132 0.105314
124 2 H 1.45472 7.72838 7.72153 -0.278418 -0.139897 -0.0699201
125 2 H 7.49552 6.94674 8.44591 -0.306853 0.149598 -0.170102
126 2 H 3.68446 9.67408 3.30385 0 0 0
127 2 H 8.67722 2.38938 8.21128 0.221988 -0.480543 0.130386
128 2 H 0.975715 6.46351 8.66495 -0.418403 -0.308729 -0.211038
129 2 H 6.07355 7.92177 8.22372 0.182933 -0.272338 -0.107156
130 2 H 11.4733 7.50812 7.97777 -0.963166 0.3441 0.26229
131 2 H 8.93489 4.44542 5.23612 -0.581401 -1.53798 -0.110756
132 2 H 3.7042 1.87891 6.42248 -0.172614 -0.0175984 0.338501
133 2 H 1.60888 3.17715 3.30385 0 0 0
134 2 H 10.3488 8.22312 3.30385 0 0 0
135 2 H 4.52217 8.22312 3.30385 0 0 0
136 2 H 6.15174 9.79575 4.44023 0.299833 -0.467853 -0.243813
137 2 H 0.46483 9.33103 4.74072 -0.373011 -0.874832 -0.627797
138 2 H 3.62642 4.69063 4.34185 -0.0230708 0.378912 0.417154
139 2 H 3.68446 6.31382 0 0 0 0
140 2 H 9.51104 6.31382 0 0 0 0
141 2 H 0.771166 1.26785 0 0 0 0
142 2 H 6.59775 1.26785 0 0 0 0
143 2 H 6.14164 1.23912 5.0215 -0.23533 -0.0485532 0.195128
144 2 H 11.699 0.859935 5.04424 -0.0749924 -0.0295168 -0.0846651
145 2 H 3.2748 6.27878 4.78521 -0.23684 0.173743 0.0918179
146 2 H 7.43546 3.17715 3.30385 0 0 0
147 2 H 7.43869 9.90325 0 0 0 0
148 3 I 9.38133 1.39452 17.0518 0.642618 -0.310421 0.133491
149 3 I 8.36464 1.52736 11.7798 -0.325743 -1.09266 0.85867
150 3 I 9.99863 5.01936 10.9479 0.506299 0.0700857 -0.767395
151 3 I 4.41272 8.44651 13.1826 -1.17718 -0.0321888 0.356335
152 3 I 4.05518 2.04227 17.2673 0.0839707 -0.0840189 -0.65721
153 3 I 0.889243 1.83292 13.0514 0.302601 -0.488516 -0.306672
154 3 I 6.93083 5.45497 16.2032 -0.0269638 -0.161047 -0.787378
155 4 N 6.59775 3.6608 2.95976 0 0 0
156 4 N 6.59775 0.296822 0.342545 0 0 0
157 4 N 3.76883 1.92299 7.45736 -0.0609641 0.298928 -0.347388
158 4 N 9.48671 1.80521 7.91387 -0.723852 1.15049 -1.27388
159 4 N 0.69708 7.0245 7.85102 1.71711 0.263771 -0.196963
160 4 N 0.771166 3.6608 2.95976 0 0 0
161 4 N 6.60086 7.07457 7.93838 -0.224377 -0.592412 -0.586674
162 4 N 0.776931 0.134377 5.06287 1.28913 1.19972 1.69966
163 4 N 0.771166 0.296822 0.342545 0 0 0
164 4 N 3.68446 8.70677 2.95976 0 0 0
165 4 N 9.51104 5.34279 0.342545 0 0 0
166 4 N 3.68446 5.34279 0.342545 0 0 0
167 4 N 6.56324 0.304278 5.15104 -1.86291 0.925872 0.353112
168 4 N 9.51104 8.70677 2.95976 0 0 0
169 4 N 9.48145 5.27492 5.15592 -0.0194744 1.53563 -1.41938
170 4 N 3.78642 5.43723 5.05509 0.716706 -0.919021 -0.471281
171 5 Si 9.51104 1.97881 1.80169 0 0 0
172 5 Si 6.57614 3.70972 6.64491 -0.61472 -0.309558 -0.0682019
173 5 Si 0.924388 3.61416 6.31763 -0.426529 -0.150311 0.642698
174 5 Si 3.71721 8.68939 6.38161 -0.440448 -0.147381 0.31765
175 5 Si 6.59775 7.02478 1.80169 0 0 0
176 5 Si 0.771166 7.02478 1.80169 0 0 0
177 5 Si 3.68446 1.97881 1.80169 0 0 0
178 5 Si 9.43008 8.61437 6.3893 -0.534909 0.399806 0.474543
ITEM: TIMESTEP
200
ITEM: NUMBER OF ATOMS
178
ITEM: BOX BOUNDS pp pp ff
0.0000000000000000e+00 1.1653169955468799e+01
0.0000000000000000e+00 1.0091941216053600e+01
0.0000000000000000e+00 3.7142611000000002e+01
ITEM: ATOMS id type element xu yu zu fx fy fz
1 1 F 7.81752 7.72902 0.816065 0 0 0
2 1 F 6.54391 2.21315 7.57977 0.0143608 0.212268 -0.242358
3 1 F 11.2046 7.72902 0.816065 0 0 0
4 1 F 5.37798 7.72902 0.816065 0 0 0
5 1 F 8.29127 2.68305 0.816065 0 0 0
6 1 F 2.46469 2.68305 0.816065 0 0 0
7 1 F 7.8184 6.32004 2.80035 0 0 0
8 1 F 1.99181 6.32004 2.80035 0 0 0
9 1 F 10.7317 1.27407 2.80035 0 0 0
10 1 F 4.9051 1.27407 2.80035 0 0 0
11 1 F 4.94056 7.9735 5.60795 0.282377 -0.462911 -0.205935
12 1 F 10.6944 8.10596 5.46291 0.213498 -0.274345 -0.415432
13 1 F 2.01792 2.87052 5.53542 0.100343 -0.00839088 -0.174047
14 1 F 7.83714 2.96936 5.66068 0.612905 -0.0664994 -0.0144318
15 1 F 2.44691 9.41034 7.4792 -0.0252884 0.22308 -0.320261
16 1 F 8.19545 9.1608 7.5792 0.41738 -0.126004 -0.381215
17 1 F 5.43748 4.37449 7.69473 0.0884479 -0.024515 -0.475337
18 1 F 11.1999 4.21593 7.50163 0.162975 0.104813 -0.306142
19 1 F 0.717419 2.09851 7.42861 0.254667 0.398044 0.0798187
20 1 F 2.46381 1.27407 2.80035 0 0 0
21 1 F 9.44211 7.0777 7.24862 0.106017 0.0401711 0.225018
22 1 F 11.2517 2.82414 5.45695 0.0339045 0.318345 -0.0028801
23 1 F 6.80929 5.13198 5.72679 -0.367373 0.0962778 0.0940257
24 1 F 3.71527 10.0524 5.49833 -0.112201 0.21204 -0.118806
25 1 F 7.84675 4.31708 7.73489 0.400503 -0.166352 0.0869227
26 1 F 2.02743 4.22575 7.52155 -0.214615 0.00264287 -0.217321
27 1 F 10.6572 9.26403 7.51894 -0.339797 -0.17973 -0.0830653
28 1 F 4.89858 9.45265 7.50886 0.0515271 -0.346034 -0.0515746
29 1 F 9.22819 1.80537 15.3538 -0.254521 -0.0463912 0.0923635
30 1 F 1.99093 7.72902 0.816065 0 0 0
31 1 F 10.7308 2.68305 0.816065 0 0 0
32 1 F 4.90423 2.68305 0.816065 0 0 0
33 1 F 6.59775 8.43426 2.80035 0 0 0
34 1 F 0.771166 8.43426 2.80035 0 0 0
35 1 F 9.51104 3.38829 2.80035 0 0 0
36 1 F 3.68446 3.38829 2.80035 0 0 0
37 1 F 2.53426 7.93025 5.49766 0.0832341 0.182822 0.174498
38 1 F 8.23977 7.99354 5.41844 -0.0817742 -0.142231 -0.197357
39 1 F 5.4851 3.09252 5.54306 -0.191416 0.176823 0.322252
40 1 F 3.59883 7.33141 7.59107 0.32626 0.0234344 -0.163862
41 1 F 0.794775 4.95845 5.5557 -0.143694 0.450823 -0.159397
42 1 F 8.2904 1.27407 2.80035 0 0 0
43 1 F 11.2037 6.32004 2.80035 0 0 0
44 1 F 10.2619 3.75782 12.1914 0.232275 0.105351 0.0590104
45 1 F 12.0284 5.02046 10.4205 0.552545 -0.290421 -0.0614311
46 1 F 10.8294 6.26815 12.1318 0.367871 0.11145 0.854544
47 1 F 2.9316 8.49827 14.3734 0.519479 0.109134 -0.19431
48 1 F 4.46875 6.62702 13.3596 0.115977 -0.0695416 -0.0431099
49 1 F 5.8605 8.37064 11.8614 -0.405982 -0.122885 0.266166
50 1 F 4.39546 10.4086 12.874 0.110546 -0.116695 0.276027
51 1 F 5.4965 8.67316 14.4016 -0.178685 0.261903 -0.159731
52 1 F 2.89418 0.595691 16.7554 -0.0621208 -0.157126 0.0738525
53 1 F 2.39971 3.02164 17.7327 -0.108957 0.283738 -0.13649
54 1 F 5.1551 3.40749 17.8867 0.154172 0.267392 -0.0906887
55 1 F 5.45801 0.723126 17.3586 -0.126198 0.384064 -0.380299
56 1 F 4.0289 2.54221 15.8296 0.337343 -0.158467 0.421116
57 1 F 10.8205 0.260963 16.4785 -0.415193 0.393655 0.265577
58 1 F 8.18458 -0.00392236 16.8088 -0.136326 -0.197135 -0.239354
59 1 F 7.89115 2.54643 17.3668 -0.27755 0.362047 -0.0574529
60 1 F 10.5222 2.94115 17.1749 0.118274 0.0802364 -0.0584123
61 1 F 8.55539 5.70738 11.6026 -0.996418 0.297735 0.28648
62 1 F 5.37711 6.32004 2.80035 0 0 0
63 1 F 10.2923 6.83309 9.85513 -0.144481 0.0916345 -0.263416
64 1 F 5.48639 6.21927 16.4662 -0.392635 0.0324574 0.236107
65 1 F 3.68446 0.570344 0.816065 0 0 0
66 1 F 9.51104 0.570344 0.816065 0 0 0
67 1 F 0.771166 5.61631 0.816065 0 0 0
68 1 F 6.59775 5.61631 0.816065 0 0 0
69 1 F 8.35292 3.07106 10.3217 0.289278 -0.934469 0.72217
70 1 F 9.56561 0.488546 10.6396 0.307413 -0.0705518 -0.344419
71 1 F 7.80815 -0.151703 12.5958 0.524932 0.783262 -0.268243
72 1 F 6.63381 2.22785 12.2328 0.377667 0.055457 0.326746
73 1 F 7.18775 0.856977 10.351 -0.0848047 -0.30066 -0.296502
74 1 F -0.640445 0.565095 12.9241 -0.0958033 0.0718537 0.0399055
75 1 F 1.70421 0.710689 11.6359 0.269569 -0.160054 -0.0687485
76 1 F 2.36532 2.95092 13.2225 -0.20703 -0.453789 0.0613944
77 1 F -0.0140737 2.62709 14.4257 0.0903895 0.170845 0.310881
78 1 F 1.48533 0.646774 14.1517 0.141373 0.525225 -0.245417
79 1 F 7.95413 6.93067 17.3971 -0.158107 -0.556802 -0.197149
80 1 F 8.97198 5.0894 15.6054 0.294937 0.00392431 0.0603234
81 1 F 6.57215 4.42054 14.8103 0.156831 0.225819 0.416969
82 1 F 7.3259 6.85573 14.9892 0.183976 -0.37557 0.0432655
83 1 F 9.3654 10.1126 5.60867 -0.0316091 -0.0448545 0.17361
84 2 H 1.24629 0.326494 4.33256 0.0213667 -0.32189 -0.428995
85 2 H 1.35292 0.181181 5.99953 -0.783791 -0.0557287 -0.874051
86 2 H 6.27682 -0.0818894 6.01269 -0.0239115 0.399536 0.126398
87 2 H 3.2094 1.1366 8.16025 0.0637959 0.037506 -0.238095
88 2 H 9.51104 5.34279 1.36921 0 0 0
89 2 H 3.68446 5.34279 1.36921 0 0 0
90 2 H 6.59775 0.296822 1.36921 0 0 0
91 2 H 0.771166 0.296822 1.36921 0 0 0
92 2 H 8.67011 4.85728 0 0 0 0
93 2 H 2.84352 4.85728 0 0 0 0
94 2 H 11.5834 9.90325 0 0 0 0
95 2 H 5.75681 9.90325 0 0 0 0
96 2 H 6.59775 4.62811 3.30385 0 0 0
97 2 H 9.40023 1.62344 6.83248 0.336167 0.0642708 0.0547274
98 2 H 0.590737 6.43055 6.88245 -0.060084 0.263718 0.544248
99 2 H 3.11905 5.01292 6.02993 0.627405 0.360929 -0.534346
100 2 H 6.33804 6.07525 8.44747 0.312599 1.08219 -0.756094
101 2 H 3.41412 2.82841 8.09846 -0.00298256 -0.17509 -0.22832
102 2 H 7.4912 0.657664 5.10644 1.78037 0.185568 0.39175
103 2 H 4.28894 6.09027 5.29412 -0.0979076 -0.381332 0.200133
104 2 H 10.0548 5.54414 4.31244 0.27617 -0.319614 -0.228568
105 2 H 0.771166 4.62811 3.30385 0 0 0
106 2 H 9.51104 9.67408 3.30385 0 0 0
107 2 H 8.83451 5.94366 5.32822 0.410572 -0.339667 0.232066
108 2 H 6.59775 3.6608 1.93343 0 0 0
109 2 H 0.771166 3.6608 1.93343 0 0 0
110 2 H 1.6121 9.90325 0 0 0 0
111 2 H 9.51104 8.70677 1.93343 0 0 0
112 2 H 3.68446 8.70677 1.93343 0 0 0
113 2 H 10.352 4.85728 0 0 0 0
114 2 H 6.5303 6.58406 6.85543 0.0315403 0.17398 0.549319
115 2 H 4.52539 4.85728 0 0 0 0
116 2 H 10.2609 5.29651 5.95558 0.113607 -0.0606018 0.40557
117 2 H 2.84674 8.22312 3.30385 0 0 0
118 2 H 8.67333 8.22312 3.30385 0 0 0
119 2 H 5.76004 3.17715 3.30385 0 0 0
120 2 H 11.5866 3.17715 3.30385 0 0 0
121 2 H 4.74686 1.8051 7.80047 -0.214099 0.108254 -0.0630283
122 2 H 9.55447 0.968489 8.31204 0.162351 0.06962 0.32035
123 2 H 10.5811 2.27063 7.85615 0.436051 -0.135629 0.0345158
124 2 H 1.7923 6.99125 7.93405 -0.441509 -0.10894 -0.281161
125 2 H 7.45506 7.40116 8.01974 -0.470763 -0.436326 -0.0361771
126 2 H 3.68446 9.67408 3.30385 0 0 0
127 2 H 8.93219 2.54583 8.10812 0.0666506 -0.105071 0.24796
128 2 H 0.224395 6.81277 8.54264 -0.273083 -0.112143 -0.366638
129 2 H 5.78915 7.65523 7.96019 0.278451 -0.406923 -0.0687861
130 2 H 12.2673 8.0425 7.46301 -0.381663 -0.0582953 -0.0230539
131 2 H 9.12951 4.28381 5.14166 0.844274 1.23837 -0.0139915
132 2 H 3.46952 1.91958 6.69438 0.0360758 -0.0145622 0.393695
133 2 H 1.60888 3.17715 3.30385 0 0 0
134 2 H 10.3488 8.22312 3.30385 0 0 0
135 2 H 4.52217 8.22312 3.30385 0 0 0
136 2 H 6.57085 9.52554 4.45564 0.207034 0.0121018 -0.0592259
137 2 H 0.00964822 9.59339 5.23792 -0.202902 -0.575627 -0.323973
138 2 H 4.10851 4.46092 4.77111 0.243519 -0.0164089 0.26056
139 2 H 3.68446 6.31382 0 0 0 0
140 2 H 9.51104 6.31382 0 0 0 0
141 2 H 0.771166 1.26785 0 0 0 0
142 2 H 6.59775 1.26785 0 0 0 0
143 2 H 6.00457 0.979812 4.68691 -0.768073 0.05127 0.24113
144 2 H 11.8513 1.18614 5.2942 0.0101297 -0.379015 -0.0864385
145 2 H 2.94644 5.6042 4.45534 -0.0206933 0.0517951 0.15343
146 2 H 7.43546 3.17715 3.30385 0 0 0
147 2 H 7.43869 9.90325 0 0 0 0
148 3 I 9.40293 1.39837 17.1515 0.886457 -0.631266 0.00363401
149 3 I 8.3045 1.46967 11.6876 -1.26873 0.583859 -0.302443
150 3 I 10.1606 5.17251 10.8225 0.136988 -0.25508 -0.930905
151 3 I 4.3028 8.4959 13.008 -0.439686 -0.163397 -0.346228
152 3 I 3.96275 1.93099 17.5813 -0.163583 -0.552437 0.12156
153 3 I 0.81044 1.85086 12.9123 -0.0682801 0.0746927 -0.0974517
154 3 I 7.23598 5.5036 16.2708 0.0498261 0.361479 -0.476012
155 4 N 6.59775 3.6608 2.95976 0 0 0
156 4 N 6.59775 0.296822 0.342545 0 0 0
157 4 N 3.71076 1.91728 7.70667 0.204319 0.133084 0.0564903
158 4 N 9.64665 1.85978 7.81086 -1.35601 -0.146092 -0.418431
159 4 N 0.768302 7.05102 7.70035 1.1371 0.00730047 0.25254
160 4 N 0.771166 3.6608 2.95976 0 0 0
161 4 N 6.53084 6.93267 7.84583 -0.0296462 -0.297773 0.445193
162 4 N 0.682306 0.26431 5.17648 1.024 1.22702 1.61643
163 4 N 0.771166 0.296822 0.342545 0 0 0
164 4 N 3.68446 8.70677 2.95976 0 0 0
165 4 N 9.51104 5.34279 0.342545 0 0 0
166 4 N 3.68446 5.34279 0.342545 0 0 0
167 4 N 6.58896 0.246987 5.08865 -1.20194 -0.588726 -0.513392
168 4 N 9.51104 8.70677 2.95976 0 0 0
169 4 N 9.60517 5.25206 5.18375 -1.91781 -0.585902 -0.502164
170 4 N 3.63861 5.2906 5.1559 -0.552707 0.108507 0.0576813
171 5 Si 9.51104 1.97881 1.80169 0 0 0
172 5 Si 6.67642 3.69822 6.7084 -0.827851 -0.473755 -0.266815
173 5 Si 0.786223 3.56295 6.50707 0.146216 -0.871831 0.785782
174 5 Si 3.71037 8.68712 6.52371 -0.884823 0.0828105 0.436855
175 5 Si 6.59775 7.02478 1.80169 0 0 0
176 5 Si 0.771166 7.02478 1.80169 0 0 0
177 5 Si 3.68446 1.97881 1.80169 0 0 0
178 5 Si 9.42306 8.58978 6.50036 -0.137937 0.799835 0.550539
ITEM: TIMESTEP
300
ITEM: NUMBER OF ATOMS
178
ITEM: BOX BOUNDS pp pp ff
0.0000000000000000e+00 1.1653169955468799e+01
0.0000000000000000e+00 1.0091941216053600e+01
0.0000000000000000e+00 3.7142611000000002e+01
ITEM: ATOMS id type element xu yu zu fx fy fz
1 1 F 7.81752 7.72902 0.816065 0 0 0
2 1 F 6.47524 2.09851 7.35036 0.0800275 0.0117731 -0.00950761
3 1 F 11.2046 7.72902 0.816065 0 0 0
4 1 F 5.37798 7.72902 0.816065 0 0 0
5 1 F 8.29127 2.68305 0.816065 0 0 0
6 1 F 2.46469 2.68305 0.816065 0 0 0
7 1 F 7.8184 6.32004 2.80035 0 0 0
8 1 F 1.99181 6.32004 2.80035 0 0 0
9 1 F 10.7317 1.27407 2.80035 0 0 0
10 1 F 4.9051 1.27407 2.80035 0 0 0
11 1 F 4.80773 7.81179 5.65024 0.181229 -0.184019 -0.0423673
12 1 F 10.7822 8.13766 5.39051 -0.0359098 -0.290722 -0.357735
13 1 F 1.98242 2.97479 5.78375 -0.118039 -0.236785 -0.308255
14 1 F 7.75111 2.85991 5.42485 0.799156 -0.415606 -0.00517289
15 1 F 2.5019 9.57422 7.5765 0.0112533 0.0423162 -0.571374
16 1 F 8.32522 9.14925 7.62168 0.284932 -0.183863 -0.441864
17 1 F 5.53724 4.25994 7.60034 -0.184899 0.234273 -0.378297
18 1 F 11.0597 4.30573 7.67769 -0.0347198 -0.162666 -0.48729
19 1 F 0.564849 2.16235 7.62062 0.00660909 0.265557 -0.182002
20 1 F 2.46381 1.27407 2.80035 0 0 0
21 1 F 9.54029 7.07166 7.17993 0.195896 -0.260629 0.375573
22 1 F 11.1858 2.8935 5.59862 0.0683106 0.451738 -0.0123604
23 1 F 6.8707 5.05347 5.67193 -0.528332 0.728747 -0.2102
24 1 F 3.83191 10.0331 5.48863 -0.206116 0.0386115 0.282606
25 1 F 7.94508 4.08863 7.51434 0.62923 0.0431073 0.516596
26 1 F 1.84772 4.22607 7.79913 -0.0847761 0.130308 -0.182728