ITEM: TIMESTEP
0
ITEM: NUMBER OF ATOMS
216
ITEM: BOX BOUNDS pp pp ff
0.0000000000000000e+00 1.1653169955468799e+01
0.0000000000000000e+00 1.0091941216053600e+01
0.0000000000000000e+00 3.7979894999999999e+01
ITEM: ATOMS id type element xu yu zu fx fy fz
1 1 F 2.46469 2.68305 0.816065 0 0 0
2 1 F 8.29205 9.41168 7.40123 -0.0102876 -0.085495 -0.125427
3 1 F 5.37876 4.36571 7.40122 -0.0808847 -0.0160695 -0.0592622
4 1 F 11.2053 4.36571 7.40122 0.216339 -0.0119017 -0.0908386
5 1 F 2.46381 1.27407 2.80035 0 0 0
6 1 F 8.2904 1.27407 2.80035 0 0 0
7 1 F 5.37711 6.32004 2.80035 0 0 0
8 1 F 11.2037 6.32004 2.80035 0 0 0
9 1 F 3.68446 0.570344 0.816065 0 0 0
10 1 F 2.46547 9.41168 7.40123 0.0328987 0.0236487 -0.0606946
11 1 F 9.51104 0.570344 0.816065 0 0 0
12 1 F 6.59775 5.61631 0.816065 0 0 0
13 1 F 1.74139 7.08922 10.5201 -0.357687 -0.287188 -0.305202
14 1 F -4.8e-05 5.04501 10.5158 0.196523 0.209637 -0.15281
15 1 F 2.04417 3.30356 10.5152 0.0382412 -0.378876 -0.0525322
16 1 F 3.78561 5.34778 10.5195 -0.331069 -0.50065 -0.428183
17 1 F 1.8914 5.19419 12.1285 0.0276732 0.0173594 0.054799
18 1 F 2.23979 2.14742 16.1611 0.111412 -0.728195 0.457397
19 1 F 0.342243 4.04098 16.0024 -1.36065 -0.0940348 0.495201
20 1 F 0.771166 5.61631 0.816065 0 0 0
21 1 F 7.81875 2.95475 5.41686 -0.0199293 0.00386016 -0.0980676
22 1 F 1.99216 2.95475 5.41686 0.0266576 0.0731067 0.0443618
23 1 F 10.732 8.00072 5.41686 0.063213 -0.0515659 -0.0798213
24 1 F 0.771166 8.43426 2.80035 0 0 0
25 1 F 9.51104 3.38829 2.80035 0 0 0
26 1 F 3.68446 3.38829 2.80035 0 0 0
27 1 F 2.4625 8.00239 5.41686 -0.0138327 -0.010428 -0.0156495
28 1 F 8.28909 8.00239 5.41686 -0.0141141 -0.0241164 -0.0943507
29 1 F 5.37579 2.95642 5.41686 -0.0776761 -0.0129446 -0.0757735
30 1 F 11.2024 2.95642 5.41686 0.0772175 0.0350952 -0.0322701
31 1 F 3.68348 7.29864 7.40122 -0.0478746 -0.026042 -0.0508214
32 1 F 9.51007 7.29864 7.40122 0.0151318 -0.0112858 -0.0589105
33 1 F 0.770192 2.25267 7.40122 0.118329 0.0955312 -0.03536
34 1 F 6.59678 2.25267 7.40122 -0.109433 0.0384131 -0.0998359
35 1 F 11.2046 7.72902 0.816065 0 0 0
36 1 F 5.37798 7.72902 0.816065 0 0 0
37 1 F 8.29127 2.68305 0.816065 0 0 0
38 1 F 7.8184 6.32004 2.80035 0 0 0
39 1 F 1.99181 6.32004 2.80035 0 0 0
40 1 F 10.7317 1.27407 2.80035 0 0 0
41 1 F 4.9051 1.27407 2.80035 0 0 0
42 1 F 4.90545 8.00072 5.41686 -0.0269282 -0.00391951 -0.0396901
43 1 F -0.000633 3.47908 13.3989 0.372734 0.154509 0.480778
44 1 F 1.89691 1.58552 13.5577 -0.437037 0.50811 0.234176
45 1 F -0.001575 1.72186 15.1632 -0.0989282 -0.135209 0.203969
46 1 F 1.75654 6.9488 17.9774 0.337509 -0.661501 -0.381456
47 1 F 10.1503 2.94744 10.4655 -0.0288901 -0.138365 -0.222213
48 1 F 6.27418 9.6792 13.4694 0.389587 1.70495 -0.117539
49 1 F 1.6472 0.081318 10.8466 0.305566 0.342566 -0.650612
50 1 F 9.30263 0.385328 14.4283 0.0824837 -0.978154 -0.281895
51 1 F 4.71844 3.33559 15.7648 -0.242503 0.888692 -0.952887
52 1 F 6.12282 9.86752 17.9761 -0.238113 0.415217 0.885793
53 1 F 10.4456 10.0946 17.4893 -2.7858 -0.0677417 -0.334653
54 1 F 8.8049 6.30228 17.4367 -0.548089 -0.213703 0.768718
55 1 F 0.888473 9.84684 17.5898 3.02361 -0.3156 0.178307
56 1 F 3.82103 8.16665 17.9434 0.312251 1.22093 0.36478
57 1 F 11.0331 7.01402 17.8754 -0.283667 0.56076 0.123154
58 1 F 10.6497 0.124449 10.0529 -0.458986 -0.167951 0.107136
59 1 F 10.1172 3.13401 17.9769 1.46837 -0.184037 1.40941
60 1 F 5.72492 5.28189 17.9742 0.164497 -0.156384 -0.274175
61 1 F 7.17079 4.47204 13.1482 -0.850335 0.935742 0.616477
62 1 F 3.85026 0.281647 13.9428 0.0375417 -0.44531 0.134624
63 1 F 5.32736 2.43175 12.6758 0.0584947 -0.0572439 0.471427
64 1 F 4.64006 2.46102 17.9768 -0.548128 -0.361028 0.887941
65 1 F 11.7 7.25536 13.7173 -0.77679 -0.119097 -0.0248664
66 1 F 7.93786 4.07901 10.3068 -0.0541328 0.128216 -0.360952
67 1 F 6.59775 8.43426 2.80035 0 0 0
68 1 F 8.18701 1.44007 10.7373 -0.0966508 -0.633329 -0.454445
69 1 F 9.67474 4.56751 12.2958 -0.133722 0.00476525 -0.0862775
70 1 F 2.32566 4.42431 17.2601 0.79372 -0.238381 0.622947
71 1 F 2.25654 5.1436 14.6738 1.06421 0.321326 -1.32157
72 1 F 1.68742 7.66809 15.3911 0.70147 0.479268 0.334906
73 1 F 3.58029 6.38608 16.3781 -0.0212362 -0.599684 -0.407988
74 1 F 5.45436 9.47932 15.6944 -0.108257 -0.620325 0.0472555
75 1 F 5.39698 6.97958 14.7149 -0.310848 -0.644875 0.0668833
76 1 F 8.01977 6.71804 15.2287 0.257145 -0.758306 -0.617095
77 1 F 8.07716 9.21779 16.2082 0.367914 -0.124385 0.53003
78 1 F 6.39294 7.5314 16.9295 0.1383 -0.166285 -0.375849
79 1 F 5.78187 9.58438 11.1429 0.00703878 -0.0051855 -0.570437
80 1 F 7.02185 7.41929 12.136 0.946109 -0.269077 0.109154
81 1 F 4.64101 6.25789 12.5767 0.0217466 -0.174447 -0.120139
82 1 F 3.40103 8.42298 11.5836 0.550101 0.0255824 0.132411
83 1 F 5.25596 7.27091 10.3867 0.219086 0.0893236 -0.299314
84 1 F 9.40858 4.16517 15.9527 -0.418137 -0.0191616 -0.859765
85 1 F 7.74979 3.36807 17.9084 -0.475956 -0.0650428 -0.579547
86 1 F 6.46664 1.77338 16.17 0.70723 -0.167728 -0.246344
87 1 F 8.12543 2.57049 14.2144 -0.184084 -0.482662 0.154237
88 1 F 8.94377 1.7646 16.4238 -0.570022 0.0466248 -0.238899
89 1 F 9.92389 1.92857 12.7263 0.129813 -0.158582 -0.907585
90 1 F 4.90423 2.68305 0.816065 0 0 0
91 1 F 0.01276 10.0997 12.8613 -0.181561 -0.444858 0.525896
92 1 F 1.99093 7.72902 0.816065 0 0 0
93 1 F 6.59871 5.07124 5.41686 -0.0356639 0.0204561 -0.0865946
94 1 F 0.772129 5.07124 5.41686 0.078991 -0.0302329 0.0507657
95 1 F 9.51201 10.1172 5.41686 0.0051373 0.00812061 -0.117917
96 1 F 3.68542 10.1172 5.41686 -0.0146637 0.012926 -0.0447676
97 1 F 10.7308 2.68305 0.816065 0 0 0
98 1 F 1.99113 4.36402 7.40122 0.109923 0.0426271 0.00252966
99 1 F 10.731 9.41 7.40122 -0.00584421 -0.14633 -0.305372
100 1 F 4.90442 9.41 7.40122 -0.0854219 -0.0156443 -0.0972814
101 1 F 7.81752 7.72902 0.816065 0 0 0
102 1 F 7.81771 4.36402 7.40122 -0.109479 0.0111468 -0.2362
103 2 H 9.51039 0.993428 7.92167 0.0567003 0.0470052 0.258921
104 2 H 4.26898 4.15596 15.913 0.178928 -0.11247 0.0683096
105 2 H 2.83141 2.47207 7.92167 0.0497047 -0.0692925 0.0610982
106 2 H 9.99985 -8e-06 14.9406 -0.317231 0.310165 -0.0433238
107 2 H 7.4393 0.782748 4.7083 0.00313181 0.000424852 0.0451837
108 2 H 1.6563 0.615568 10.0646 -0.174124 -0.207778 0.356711
109 2 H 4.52601 5.82872 4.7083 0.0122679 -0.000472869 0.0319874
110 2 H 7.12059 10.1006 13.5247 0.690101 0.737087 -0.487621
111 2 H 10.3526 5.82872 4.7083 -0.0192791 0.00975436 0.0325179
112 2 H 3.68381 0.993427 7.92167 0.0185112 -0.0179127 0.0311053
113 2 H 0.770517 6.0394 7.92167 -0.268123 0.197569 -0.302131
114 2 H 3.68446 8.70677 1.93343 0 0 0
115 2 H 1.6121 9.90325 0 0 0 0
116 2 H 7.43869 9.90325 0 0 0 0
117 2 H 4.52539 4.85728 0 0 0 0
118 2 H 10.352 4.85728 0 0 0 0
119 2 H 6.59775 7.02478 6.59028 0.0396438 -0.00797168 0.0626356
120 2 H 9.51104 8.70677 1.93343 0 0 0
121 2 H 0.771166 3.6608 1.93343 0 0 0
122 2 H 6.59775 3.6608 1.93343 0 0 0
123 2 H 8.66944 5.82864 4.7083 0.00393365 -0.00135493 0.0436672
124 2 H 9.51104 9.67408 3.30385 0 0 0
125 2 H 0.771166 4.62811 3.30385 0 0 0
126 2 H 6.5971 6.0394 7.92167 0.00883168 0.0139347 0.114635
127 2 H 5.20523 10.1021 17.9779 0.609188 -0.09067 -0.176188
128 2 H 3.68446 1.97881 6.59028 -0.00234058 -0.0114877 0.0173872
129 2 H 9.63334 10.1001 17.9764 -0.593413 0.267849 -0.103437
130 2 H 8.67333 8.22312 3.30385 0 0 0
131 2 H 10.9764 7.31372 14.3256 0.129977 -0.151128 -0.251215
132 2 H 5.76004 3.17715 3.30385 0 0 0
133 2 H 3.7058 2.61655 17.9761 0.295504 0.0575884 -0.314936
134 2 H 11.5866 3.17715 3.30385 0 0 0
135 2 H 5.17409 2.43626 13.6104 -0.0976183 -0.0646448 -0.345992
136 2 H 4.53815 2.47094 7.92167 0.0549944 0.0134576 0.047153
137 2 H 3.29198 -0.000605 14.6539 0.295044 0.0549068 -0.20484
138 2 H 10.3647 2.47094 7.92167 -0.115339 -0.0852273 0.206905
139 2 H 6.99157 5.23984 13.6729 0.109775 0.101355 -0.400672
140 2 H 1.62486 7.51691 7.92167 -0.0754565 0.111322 0.0626779
141 2 H 6.07197 5.15542 17.1021 -0.400053 0.19288 0.55602
142 2 H 7.45144 7.51691 7.92167 -0.0186026 0.00891979 0.0426767
143 2 H 11.0626 3.07885 17.9683 -0.270073 0.163936 -0.258888
144 2 H 3.68446 9.67408 3.30385 0 0 0
145 2 H 10.1032 -5e-06 10.8163 0.428489 0.119787 -0.167473
146 2 H 8.658 2.47207 7.92167 0.081571 -0.0311144 0.130479
147 2 H 10.7948 7.92499 17.977 0.271463 -0.400534 -0.298619
148 2 H 5.74471 7.51804 7.92167 0.0315739 -0.0262765 0.159786
149 2 H 3.17572 8.85911 17.9765 -0.170866 -0.362709 -0.0389684
150 2 H 11.5713 7.51804 7.92167 -0.0216916 0.0715722 0.0738105
151 2 H 0.036142 10.1 17.9161 0.371128 0.0545633 0.121693
152 2 H 6.59775 4.62811 3.30385 0 0 0
153 2 H 8.04188 6.16193 17.9799 0.0898072 0.0391196 -0.201529
154 2 H 9.51104 1.97881 6.59028 -0.0320478 0.0077311 0.0918737
155 2 H 0.771166 7.02478 6.59028 -0.00745006 0.00909526 0.0141568
156 2 H 5.75681 9.90325 0 0 0 0
157 2 H 1.61272 0.782748 4.7083 -0.00377683 -0.0137156 0.0215466
158 2 H 2.84352 4.85728 0 0 0 0
159 2 H 9.51104 6.31382 0 0 0 0
160 2 H 3.68446 6.31382 0 0 0 0
161 2 H 3.68451 4.37102 4.7083 0.017981 0.00486391 0.0166237
162 2 H 0.771214 9.41699 4.7083 -0.00846166 0.00280996 0.030865
163 2 H 6.59775 1.26785 0 0 0 0
164 2 H 6.5978 9.41699 4.7083 0.00944816 0.00282405 0.0348332
165 2 H 5.75615 0.782665 4.7083 0.0138743 -0.00170536 0.0319747
166 2 H 11.5827 0.782665 4.7083 -0.0132812 -0.00976918 0.0360502
167 2 H 2.84286 5.82864 4.7083 0.0082896 0.00676614 0.0147465
168 2 H 2.84674 8.22312 3.30385 0 0 0
169 2 H 4.52217 8.22312 3.30385 0 0 0
170 2 H 10.3488 8.22312 3.30385 0 0 0
171 2 H 9.51109 4.37102 4.7083 -0.0147888 0.00182115 0.0391361
172 2 H 9.51104 5.34279 6.07566 -0.0286244 0.00187689 0.0484976
173 2 H 3.68446 5.34279 6.07566 0.0463898 0.0112683 0.00708775
174 2 H 6.59775 0.296822 6.07566 0.0223265 0.00455666 0.0408314
175 2 H 0.771166 0.296822 6.07566 -0.0320147 -0.0201925 0.0533015
176 2 H 1.60888 3.17715 3.30385 0 0 0
177 2 H 7.43546 3.17715 3.30385 0 0 0
178 2 H 9.51104 5.34279 1.36921 0 0 0
179 2 H 3.68446 5.34279 1.36921 0 0 0
180 2 H 6.59775 0.296822 1.36921 0 0 0
181 2 H 0.771166 0.296822 1.36921 0 0 0
182 2 H 0.337899 9.88696 13.725 -0.0216117 0.00901406 -0.560427
183 2 H 8.67011 4.85728 0 0 0 0
184 2 H 0.771166 1.26785 0 0 0 0
185 2 H 11.5834 9.90325 0 0 0 0
186 3 I 1.77566 5.99634 16.3179 -1.11351 2.81593 2.38627
187 3 I 1.28406 2.97337 14.7238 0.413645 -1.82492 -2.21009
188 3 I 5.20491 8.01653 12.0759 -2.04562 0.166492 -0.725457
189 3 I 7.78999 3.14601 16.0082 0.0299947 0.198013 1.50627
190 3 I 1.89298 5.19672 10.2813 0.073886 0.0679776 0.117272
191 3 I 8.75197 3.01206 11.6707 0.23505 0.615124 0.39383
192 3 I 6.78755 8.18191 15.2462 0.266731 0.618291 2.24381
193 4 N 9.51104 1.97881 7.62088 -0.000374573 0.00354665 -0.262096
194 4 N 3.68446 1.97881 7.62088 -0.0203629 0.00508889 -0.0215167
195 4 N 6.59775 3.6608 2.95976 0 0 0
196 4 N 0.771166 3.6608 2.95976 0 0 0
197 4 N 0.771167 0.296821 5.04741 0.0106518 0.0146992 0.0103846
198 4 N 0.771166 0.296822 0.342545 0 0 0
199 4 N 3.68446 8.70677 2.95976 0 0 0
200 4 N 9.51104 5.34279 0.342545 0 0 0
201 4 N 6.59775 7.02478 7.62088 -0.00411 -0.0144143 -0.154603
202 4 N 6.59775 0.296822 0.342545 0 0 0
203 4 N 9.51104 8.70677 2.95976 0 0 0
204 4 N 9.51104 5.34279 5.04741 0.0140847 -0.00707015 -0.000318265
205 4 N 3.68446 5.34279 5.04741 -0.0346889 -0.0101873 0.0246676
206 4 N 6.59775 0.296822 5.04741 -0.00931477 -0.00527494 0.00313336
207 4 N 0.771166 7.02478 7.62088 0.0431546 0.0153219 -0.0412908
208 4 N 3.68446 5.34279 0.342545 0 0 0
209 5 Si 9.51104 8.70677 6.42034 0.0314285 0.14044 0.436529
210 5 Si 3.68446 1.97881 1.80169 0 0 0
211 5 Si 9.51104 1.97881 1.80169 0 0 0
212 5 Si 0.771166 7.02478 1.80169 0 0 0
213 5 Si 6.59775 7.02478 1.80169 0 0 0
214 5 Si 3.68446 8.70677 6.42034 0.0561082 0.0287699 0.206157
215 5 Si 0.771166 3.6608 6.42034 -0.421198 -0.186808 -0.0795925
216 5 Si 6.59775 3.6608 6.42034 0.211378 -0.00147086 0.377752
ITEM: TIMESTEP
100
ITEM: NUMBER OF ATOMS
216
ITEM: BOX BOUNDS pp pp ff
0.0000000000000000e+00 1.1653169955468799e+01
0.0000000000000000e+00 1.0091941216053600e+01
0.0000000000000000e+00 3.7979894999999999e+01
ITEM: ATOMS id type element xu yu zu fx fy fz
1 1 F 2.46469 2.68305 0.816065 0 0 0
2 1 F 8.24794 9.40916 7.32378 -0.155428 -0.0399623 -0.215781
3 1 F 5.38384 4.27712 7.3819 -0.125705 -0.434818 0.00650649
4 1 F 11.1781 4.34042 7.37897 0.0854233 0.275356 0.309075
5 1 F 2.46381 1.27407 2.80035 0 0 0
6 1 F 8.2904 1.27407 2.80035 0 0 0
7 1 F 5.37711 6.32004 2.80035 0 0 0
8 1 F 11.2037 6.32004 2.80035 0 0 0
9 1 F 3.68446 0.570344 0.816065 0 0 0
10 1 F 2.29521 9.4022 7.27963 -0.21989 -0.0584741 -0.0777494
11 1 F 9.51104 0.570344 0.816065 0 0 0
12 1 F 6.59775 5.61631 0.816065 0 0 0
13 1 F 1.52593 6.99462 10.1178 0.217523 -0.346561 -0.249761
14 1 F -0.106464 5.00311 10.5131 0.161447 0.0560707 0.182228
15 1 F 1.99413 3.1847 10.7187 -0.0666487 0.257264 -0.0329651
16 1 F 3.69951 5.1057 9.95545 -0.099626 -0.0548377 0.0214883
17 1 F 1.99875 5.4568 11.8945 0.0467203 -0.322396 0.487054
18 1 F 2.28757 1.43885 15.9314 0.255199 -0.27584 0.294456
19 1 F 0.456392 4.00336 16.0985 -0.302915 -0.894579 -0.705282
20 1 F 0.771166 5.61631 0.816065 0 0 0
21 1 F 7.79317 2.95615 5.28979 -0.247115 -0.145747 0.124447
22 1 F 1.94913 2.76754 5.53119 -0.106073 0.0667361 0.158694
23 1 F 10.6673 7.81977 5.37472 -0.228894 0.253047 -0.0959153
24 1 F 0.771166 8.43426 2.80035 0 0 0
25 1 F 9.51104 3.38829 2.80035 0 0 0
26 1 F 3.68446 3.38829 2.80035 0 0 0
27 1 F 2.45092 7.90909 5.34005 0.236086 0.107974 0.463006
28 1 F 8.24704 7.87344 5.44073 -0.302255 -0.141679 -0.273066
29 1 F 5.32754 2.92722 5.2997 0.0421758 -0.0170846 0.302184
30 1 F 11.151 2.9052 5.47241 0.153686 -0.283692 -0.162903
31 1 F 3.68776 7.40099 7.37785 -0.0545197 -0.121952 0.240732
32 1 F 9.49197 7.33785 7.47764 -0.218404 -0.127394 -0.27673
33 1 F 0.622959 2.19088 7.51597 0.228905 -0.0139222 -0.14095
34 1 F 6.56684 2.05334 7.20244 -0.137754 0.578418 -0.116087
35 1 F 11.2046 7.72902 0.816065 0 0 0
36 1 F 5.37798 7.72902 0.816065 0 0 0
37 1 F 8.29127 2.68305 0.816065 0 0 0
38 1 F 7.8184 6.32004 2.80035 0 0 0
39 1 F 1.99181 6.32004 2.80035 0 0 0
40 1 F 10.7317 1.27407 2.80035 0 0 0
41 1 F 4.9051 1.27407 2.80035 0 0 0
42 1 F 4.95331 8.06165 5.44044 -0.305872 0.0099681 0.109898
43 1 F 0.310093 3.62682 13.4803 0.188577 0.0289678 0.450887
44 1 F 1.76431 1.58716 13.2804 0.134019 0.648213 1.27172
45 1 F -0.0763652 1.68995 15.0199 0.107758 -0.0357034 0.352587
46 1 F 2.67402 7.08474 18.1787 -0.328129 -0.32537 0.687703
47 1 F 9.9356 3.17339 10.2845 0.345661 0.0113857 -0.322082
48 1 F 7.47402 10.8539 12.6352 -0.445495 -0.608636 0.467677
49 1 F 1.87004 0.432903 9.87047 0.113027 -0.0771096 -0.211447
50 1 F 9.20684 -0.665324 13.975 -0.173148 -0.0325992 0.0787615
51 1 F 4.47372 4.0522 15.0777 0.0944442 -0.718958 -0.19805
52 1 F 6.14493 10.4742 18.9884 0.221541 0.370023 -0.270428
53 1 F 9.7046 10.0517 18.3289 0.397957 -0.0680652 -0.139479
54 1 F 8.49613 6.14318 18.5711 0.218254 -0.26518 0.260685
55 1 F 1.94535 9.63703 17.5724 -1.1499 0.626239 0.160494
56 1 F 4.06919 9.00125 18.1685 1.50949 0.122355 0.511883
57 1 F 11.333 7.71901 17.438 -0.302891 0.378682 -0.100921
58 1 F 10.8186 -0.00928095 10.1745 0.131756 0.0173436 -0.0590789
59 1 F 10.8635 3.5729 18.8903 -0.295413 0.116518 -0.351027
60 1 F 5.27176 5.44453 18.5675 -0.820596 0.618014 -0.276976
61 1 F 6.84898 4.96008 13.2556 0.156251 -0.455072 -0.0914966
62 1 F 4.22594 0.104189 13.8363 -0.184551 -0.163443 0.612561
63 1 F 5.08484 2.34122 12.8413 0.294122 0.433208 -0.325022
64 1 F 4.60337 2.29694 18.2675 -0.00607389 -0.0622346 -0.311078
65 1 F 11.2231 7.00449 13.6897 0.168188 -0.0141282 -0.108195
66 1 F 7.73894 4.25284 10.3666 0.282473 -0.370819 0.579661
67 1 F 6.59775 8.43426 2.80035 0 0 0
68 1 F 7.96243 1.54087 10.4571 0.632485 1.2697 0.125165
69 1 F 9.56011 4.6939 12.3014 -0.337864 -1.03257 -0.309484
70 1 F 2.16566 4.60127 17.5898 0.681144 0.552845 0.206713
71 1 F 1.90554 5.63089 14.6538 0.269667 0.162079 0.977648
72 1 F 2.37525 7.96319 15.6942 -0.104493 -0.898951 0.286887
73 1 F 3.79702 6.06836 16.3776 1.00236 -0.412094 -0.143096
74 1 F 5.45881 9.32444 16.065 0.58255 -0.198407 -0.229425
75 1 F 5.46793 7.0316 14.7316 0.356834 0.534201 -0.0906932
76 1 F 8.05125 6.61562 15.0108 -0.362146 0.980427 0.226648
77 1 F 8.38492 8.79574 16.5781 -0.39345 0.0212143 -0.388852
78 1 F 6.55124 7.26218 16.9471 -0.090101 -0.246792 0.270533
79 1 F 5.6493 9.67892 11.2729 0.284185 0.672023 -0.554469
80 1 F 7.07191 7.30599 12.3492 0.27694 -0.021698 -0.28249
81 1 F 4.59133 6.16356 12.3298 0.0679745 -0.417068 -0.147568
82 1 F 3.32536 8.24859 11.5247 1.14489 0.071352 0.120434
83 1 F 5.51152 7.35903 10.2257 -0.0710674 0.262302 0.649021
84 1 F 9.10341 4.42379 15.4519 -0.69919 -0.714142 0.525386
85 1 F 7.65641 3.59232 17.7991 -0.388408 0.347906 -0.206985
86 1 F 6.57025 1.69849 16.2678 -0.151013 -0.497189 0.0995562
87 1 F 8.05258 2.43731 14.2663 0.18137 -0.539409 -0.371907
88 1 F 9.04456 2.18189 16.5843 -0.98129 0.224042 -0.999375
89 1 F 9.94917 1.83482 12.2705 0.577679 -0.378974 0.437057
90 1 F 4.90423 2.68305 0.816065 0 0 0
91 1 F -0.276271 9.26703 12.4131 0.0752441 -0.232763 0.437056
92 1 F 1.99093 7.72902 0.816065 0 0 0
93 1 F 6.51154 5.01675 5.4281 0.143239 0.148809 -0.0408675
94 1 F 0.809015 4.92635 5.43964 0.20629 0.159502 -0.100477
95 1 F 9.38618 10.0405 5.25898 0.180829 -0.451012 0.0946013
96 1 F 3.53009 10.0551 5.28943 -0.0390526 0.0574538 -0.0426761
97 1 F 10.7308 2.68305 0.816065 0 0 0
98 1 F 1.94851 4.26412 7.43533 0.288829 0.0361579 0.170505
99 1 F 10.6444 9.40076 7.17097 0.75546 0.398439 0.296342
100 1 F 4.73622 9.66929 7.27394 -0.000928633 -0.3938 0.22995
101 1 F 7.81752 7.72902 0.816065 0 0 0
102 1 F 7.82799 4.20274 7.33266 -0.209155 -0.128937 -0.120398
103 2 H 9.37114 1.78021 9.05093 0.129707 -0.271248 -0.650187
104 2 H 4.20282 4.73293 15.6714 0.224341 0.307727 0.0839769
105 2 H 3.28417 1.7142 8.86503 -0.323919 -0.339908 0.577925
106 2 H 8.76607 0.0373526 13.4996 -0.0709308 -0.0926035 -0.16418
107 2 H 7.51391 0.489665 4.60749 0.616652 -0.186948 -0.316007
108 2 H 1.19478 -0.0193604 9.38226 -0.0275446 0.286506 0.30496
109 2 H 4.20617 6.03301 4.90588 0.176352 0.809755 -0.301653
110 2 H 6.77554 10.5627 12.0166 0.291927 -0.0202156 0.133446
111 2 H 10.2667 5.83704 5.15503 0.211513 -0.0493304 0.15726
112 2 H 4.29227 1.3575 7.55027 -0.614106 0.144702 0.303645
113 2 H 0.391598 6.22135 7.4228 0.066582 0.316309 0.0444313
114 2 H 3.68446 8.70677 1.93343 0 0 0
115 2 H 1.6121 9.90325 0 0 0 0
116 2 H 7.43869 9.90325 0 0 0 0
117 2 H 4.52539 4.85728 0 0 0 0
118 2 H 10.352 4.85728 0 0 0 0
119 2 H 6.20942 7.09692 6.6991 -0.442047 -0.029407 -1.06479
120 2 H 9.51104 8.70677 1.93343 0 0 0
121 2 H 0.771166 3.6608 1.93343 0 0 0
122 2 H 6.59775 3.6608 1.93343 0 0 0
123 2 H 8.71951 5.60379 4.6787 -0.359051 0.0971209 -0.132246
124 2 H 9.51104 9.67408 3.30385 0 0 0
125 2 H 0.771166 4.62811 3.30385 0 0 0
126 2 H 7.33429 6.57679 7.75424 0.0595096 -0.242086 0.24122
127 2 H 5.60368 10.1304 18.2999 -0.38847 -0.871378 -0.0293439
128 2 H 2.77355 2.10278 7.34164 -0.387797 -0.212844 -0.355772
129 2 H 9.26529 10.201 17.5075 -0.170302 0.10371 0.107619
130 2 H 8.67333 8.22312 3.30385 0 0 0
131 2 H 11.9402 6.44161 13.4171 -0.241901 0.181565 0.11584
132 2 H 5.76004 3.17715 3.30385 0 0 0
133 2 H 5.33447 1.68376 18.2925 -0.0483671 0.41049 0.444627
134 2 H 11.5866 3.17715 3.30385 0 0 0
135 2 H 4.57208 1.57537 13.0234 -0.238506 -0.419504 0.342682
136 2 H 4.02943 2.97451 7.98663 -0.134512 -0.490977 0.0830105
137 2 H 4.11602 0.0379819 14.7909 0.199229 0.00270158 -0.599288
138 2 H 10.398 1.68816 7.70887 0.501383 0.032327 -0.102258
139 2 H 6.99229 5.84291 12.9023 0.178366 -0.192789 0.0833687
140 2 H 1.1841 7.23677 8.58994 -0.885891 0.020321 -0.413123
141 2 H 4.57136 6.00706 18.2299 1.0712 -0.627203 0.403093
142 2 H 6.60276 8.0439 7.94676 0.0329332 0.571221 0.319821
143 2 H 10.1793 3.74372 18.2578 0.373791 -0.131538 0.356131
144 2 H 3.68446 9.67408 3.30385 0 0 0
145 2 H 11.0103 -0.197794 11.1147 -0.166925 -0.128118 -0.467094
146 2 H 8.95102 2.58092 7.66369 0.140533 0.139318 -0.087569
147 2 H 11.0108 8.61385 17.3507 0.126481 -0.33822 0.280127
148 2 H 5.68943 6.66009 8.19933 -0.455473 -0.34485 0.394452
149 2 H 3.22957 8.57727 18.0223 -0.0369457 0.5541 -0.0531896
150 2 H 11.2624 7.60133 7.90611 -0.381373 0.196816 0.294074
151 2 H 2.22531 10.4801 17.2094 -0.0820273 -0.441249 -0.0677438
152 2 H 6.59775 4.62811 3.30385 0 0 0
153 2 H 8.23358 6.87316 18.0554 -0.153373 0.230034 -0.142495
154 2 H 8.87681 0.889886 7.69483 0.464683 0.338701 0.236313
155 2 H 0.995976 7.75326 7.00767 -0.12011 -0.265066 -0.0393325
156 2 H 5.75681 9.90325 0 0 0 0
157 2 H 1.382 0.977551 4.74917 -0.1633 -0.441926 0.070378
158 2 H 2.84352 4.85728 0 0 0 0
159 2 H 9.51104 6.31382 0 0 0 0
160 2 H 3.68446 6.31382 0 0 0 0
161 2 H 3.84717 4.44666 4.64527 -0.426957 0.307288 0.28984
162 2 H 0.610019 9.56233 4.44567 0.291504 -0.234017 -0.264138
163 2 H 6.59775 1.26785 0 0 0 0
164 2 H 6.39548 9.44186 5.17197 -0.126922 -0.0832508 -0.0642216
165 2 H 5.91162 0.822577 4.48097 -0.46919 -0.108831 -0.213871
166 2 H 11.4339 0.695275 5.18986 0.0831671 0.0354722 -0.0153642
167 2 H 2.60149 5.5099 5.23997 0.545463 -0.13614 -0.131038
168 2 H 2.84674 8.22312 3.30385 0 0 0
169 2 H 4.52217 8.22312 3.30385 0 0 0
170 2 H 10.3488 8.22312 3.30385 0 0 0
171 2 H 9.70338 4.28574 4.78805 0.317034 -0.779998 -0.202557
172 2 H 9.15373 5.03088 6.19217 0.286579 0.00151276 -0.61332
173 2 H 3.94628 5.06219 6.18446 -0.0491563 -0.0970419 0.212858
174 2 H 6.6657 0.84931 5.94727 -0.187053 -0.207304 0.245831
175 2 H 1.01983 -0.0740986 6.01881 0.068106 0.0888095 -0.290683
176 2 H 1.60888 3.17715 3.30385 0 0 0
177 2 H 7.43546 3.17715 3.30385 0 0 0
178 2 H 9.51104 5.34279 1.36921 0 0 0
179 2 H 3.68446 5.34279 1.36921 0 0 0
180 2 H 6.59775 0.296822 1.36921 0 0 0
181 2 H 0.771166 0.296822 1.36921 0 0 0
182 2 H -0.68092 8.55209 12.9255 0.33554 0.108865 -0.168822
183 2 H 8.67011 4.85728 0 0 0 0
184 2 H 0.771166 1.26785 0 0 0 0
185 2 H 11.5834 9.90325 0 0 0 0
186 3 I 1.98877 6.26051 16.61 -1.8517 0.645449 -1.71018
187 3 I 1.40445 2.77355 14.8156 -0.736456 0.435921 -2.21583
188 3 I 5.17784 7.91179 12.0062 -1.82431 0.0141758 0.15537
189 3 I 7.59177 3.25162 15.9109 1.91 1.13562 1.33665
190 3 I 1.76506 4.99882 10.1313 -0.0513563 0.357627 -0.4585
191 3 I 8.68772 3.07181 11.6302 -1.73504 0.957847 -1.04946
192 3 I 6.94584 8.1556 15.3899 0.227839 -0.222876 0.274671
193 4 N 9.42762 1.73554 8.00943 -1.27394 -0.356035 0.584799
194 4 N 3.58198 2.0282 7.94955 1.57819 0.511608 -0.416178
195 4 N 6.59775 3.6608 2.95976 0 0 0
196 4 N 0.771166 3.6608 2.95976 0 0 0
197 4 N 0.71013 0.259776 5.0859 -0.278671 0.539276 0.394261
198 4 N 0.771166 0.296822 0.342545 0 0 0
199 4 N 3.68446 8.70677 2.95976 0 0 0
200 4 N 9.51104 5.34279 0.342545 0 0 0
201 4 N 6.44377 7.07863 7.6775 1.04205 -0.0470964 -0.0523464
202 4 N 6.59775 0.296822 0.342545 0 0 0
203 4 N 9.51104 8.70677 2.95976 0 0 0
204 4 N 9.48209 5.17563 5.20596 -0.479076 0.874903 0.681749
205 4 N 3.62317 5.27753 5.23629 -0.236969 -0.87713 -0.192387
206 4 N 6.61221 0.343332 5.04677 -0.0288073 0.40058 0.271506
207 4 N 0.53486 7.19825 7.74556 1.22327 -0.443087 -0.188129
208 4 N 3.68446 5.34279 0.342545 0 0 0
209 5 Si 9.45384 8.63269 6.31044 -0.36183 0.154691 0.624333
210 5 Si 3.68446 1.97881 1.80169 0 0 0
211 5 Si 9.51104 1.97881 1.80169 0 0 0
212 5 Si 0.771166 7.02478 1.80169 0 0 0
213 5 Si 6.59775 7.02478 1.80169 0 0 0
214 5 Si 3.58604 8.74446 6.37748 0.391475 0.288144 -0.63265
215 5 Si 0.732437 3.54325 6.48312 -0.854971 0.119099 -0.339364
216 5 Si 6.55907 3.55128 6.33208 0.329911 0.339533 0.160336
ITEM: TIMESTEP
200
ITEM: NUMBER OF ATOMS
216
ITEM: BOX BOUNDS pp pp ff
0.0000000000000000e+00 1.1653169955468799e+01
0.0000000000000000e+00 1.0091941216053600e+01
0.0000000000000000e+00 3.7979894999999999e+01
ITEM: ATOMS id type element xu yu zu fx fy fz
1 1 F 2.46469 2.68305 0.816065 0 0 0
2 1 F 8.0828 9.38594 7.33898 0.0986655 -0.276205 0.157704
3 1 F 5.32913 4.25779 7.40815 0.182023 -0.110348 -0.113497
4 1 F 11.1857 4.48168 7.39497 0.114623 0.138603 0.0073174
5 1 F 2.46381 1.27407 2.80035 0 0 0
6 1 F 8.2904 1.27407 2.80035 0 0 0
7 1 F 5.37711 6.32004 2.80035 0 0 0
8 1 F 11.2037 6.32004 2.80035 0 0 0
9 1 F 3.68446 0.570344 0.816065 0 0 0
10 1 F 2.19026 9.41177 7.08143 0.251484 -0.15422 0.180946
11 1 F 9.51104 0.570344 0.816065 0 0 0
12 1 F 6.59775 5.61631 0.816065 0 0 0
13 1 F 1.821 6.76369 9.62357 0.0781473 0.0619493 0.105877
14 1 F 0.0175376 5.4015 10.9025 -0.138592 -0.166503 0.137904
15 1 F 1.73409 3.0038 10.5193 -0.0703771 0.296617 0.227443
16 1 F 3.49894 4.70372 9.55368 0.097192 -0.0351013 -0.0414929
17 1 F 2.38116 5.2982 11.6369 -0.351062 -0.231378 0.0540147
18 1 F 2.39033 1.11119 15.8077 -0.325498 0.511906 -0.239711
19 1 F 0.295747 3.16555 16.1455 -0.665208 -0.0421132 0.67221
20 1 F 0.771166 5.61631 0.816065 0 0 0
21 1 F 7.71792 2.87384 5.35789 -0.0690121 0.419296 0.0739326
22 1 F 1.84571 2.77041 5.56465 0.0505745 -0.424756 -0.494537
23 1 F 10.3974 7.86279 5.29932 0.292755 0.148077 -0.0514467
24 1 F 0.771166 8.43426 2.80035 0 0 0
25 1 F 9.51104 3.38829 2.80035 0 0 0
26 1 F 3.68446 3.38829 2.80035 0 0 0
27 1 F 2.50093 7.7898 5.35833 0.0168167 0.198102 -0.254778
28 1 F 7.99981 8.02876 5.28904 0.135027 -0.0652855 0.405129
29 1 F 5.27749 2.98262 5.33304 -0.0688865 -0.184799 0.016012
30 1 F 11.0542 2.95364 5.48882 0.312079 0.0716959 0.16262
31 1 F 3.53463 7.32197 7.45735 0.110324 0.0232223 -0.00652083
32 1 F 9.21634 7.16104 7.26248 -0.165217 0.352287 0.0168358
33 1 F 0.540392 2.29457 7.55112 -0.170726 -0.546731 0.224568
34 1 F 6.50566 2.1268 7.25899 0.115937 0.230029 -0.0657358
35 1 F 11.2046 7.72902 0.816065 0 0 0
36 1 F 5.37798 7.72902 0.816065 0 0 0
37 1 F 8.29127 2.68305 0.816065 0 0 0
38 1 F 7.8184 6.32004 2.80035 0 0 0
39 1 F 1.99181 6.32004 2.80035 0 0 0
40 1 F 10.7317 1.27407 2.80035 0 0 0
41 1 F 4.9051 1.27407 2.80035 0 0 0
42 1 F 4.8931 7.92521 5.51383 0.052144 0.0910102 0.242863
43 1 F 0.426873 3.68608 13.5838 -0.297305 -0.0660828 0.173959
44 1 F 2.03107 1.81919 13.1034 0.421744 -0.0923328 0.165853
45 1 F 0.186148 1.2338 14.5309 -0.39188 0.120734 0.276977
46 1 F 2.93882 7.37229 18.5113 0.623776 -0.0767535 0.298391
47 1 F 9.73893 3.52456 10.0985 -0.173259 -0.145699 0.161019
48 1 F 7.9194 10.2876 12.1254 -0.666554 -0.0376097 -0.425467
49 1 F 1.80454 0.499121 9.53294 1.26882 0.339554 -0.201182
50 1 F 8.85584 -1.52923 13.581 0.143069 0.916812 -0.579196
51 1 F 4.63768 4.05626 14.6525 -0.189116 0.111986 0.0648756
52 1 F 6.69393 11.2136 19.7492 -0.430997 -0.319514 -0.495959
53 1 F 10.0008 9.81364 18.8197 -0.404978 0.443853 0.032068
54 1 F 8.35339 5.82361 19.9242 0.0194359 0.0887206 0.0683235
55 1 F 1.751 10.3253 18.1359 -0.219677 0.0654678 0.11814
56 1 F 4.36447 9.57465 19.2102 0.162753 -1.06558 0.103668
57 1 F 11.1339 8.59786 17.0389 0.341481 0.061257 -0.0553235
58 1 F 11.2123 -0.0189481 9.90614 -1.23918 0.214667 -0.361061
59 1 F 11.6559 4.12685 19.3198 -0.368846 -0.256601 -0.127345
60 1 F 5.25308 5.41187 19.3644 0.426176 0.414222 -0.708555
61 1 F 6.97573 4.55076 13.3336 -0.300908 0.500039 -0.25907
62 1 F 4.45078 -0.0672257 14.0754 0.101718 -0.05694 -0.0280253
63 1 F 4.94739 2.23516 12.496 -0.36231 -0.577052 -0.196706
64 1 F 4.39901 2.11313 18.2989 0.0281024 0.0272998 -0.0794812
65 1 F 11.0203 6.31304 13.7466 0.15333 0.54196 -0.325133
66 1 F 7.59234 4.61951 10.6818 -0.117399 -0.14373 -0.21099
67 1 F 6.59775 8.43426 2.80035 0 0 0
68 1 F 7.81355 1.94074 10.0431 -0.0150671 -0.26508 -0.571649
69 1 F 9.38214 4.38763 12.4935 0.58264 0.549934 0.0722583
70 1 F 1.9484 4.94519 17.713 0.385609 -0.370897 0.553145
71 1 F 1.72228 5.65349 15.3477 -0.199216 -0.171139 -1.04993
72 1 F 2.85098 8.08239 15.9084 0.400852 0.622147 -0.52837
73 1 F 3.88073 5.9151 16.4135 -0.553097 0.348582 0.583268
74 1 F 5.90662 9.13034 16.5472 -2.08452 1.37029 0.618872
75 1 F 5.80511 7.41777 14.4692 -0.453457 -0.260031 -0.270063
76 1 F 8.43421 6.81845 15.3295 -0.234132 0.600284 0.0606695
77 1 F 8.21375 8.95524 17.0315 0.765311 -0.00281455 0.560775
78 1 F 6.54921 6.92658 16.6926 0.144859 -0.151505 0.632945
79 1 F 5.7136 9.73156 11.2958 0.393654 0.701601 -0.00297268
80 1 F 6.99934 7.19526 12.1243 -0.723503 0.519957 -0.0333585
81 1 F 4.79514 6.06482 12.1174 -0.264848 0.118699 0.111682
82 1 F 3.42825 8.58506 11.2562 0.477703 -0.391842 0.59165
83 1 F 5.43675 7.59733 10.1911 -0.208509 -0.120543 0.539688
84 1 F 9.12433 4.36766 15.75 -0.689715 -0.365259 -0.277914
85 1 F 7.29428 4.04578 17.6523 -0.194446 0.151699 0.129541
86 1 F 6.41298 1.82985 16.4403 -0.3345 -0.272927 0.0411358
87 1 F 7.95481 2.25998 14.303 0.173115 -0.16295 0.394483
88 1 F 8.76993 2.2538 16.8242 -0.500529 -0.0556803 -0.559599
89 1 F 9.97443 1.9899 12.0256 -0.445624 0.0967764 -0.427768
90 1 F 4.90423 2.68305 0.816065 0 0 0
91 1 F -0.267686 8.37746 11.9203 0.094543 -0.55901 0.704438
92 1 F 1.99093 7.72902 0.816065 0 0 0
93 1 F 6.50351 5.04719 5.44197 0.211312 -0.0930847 -0.0342824
94 1 F 0.819301 4.94964 5.37785 -0.0644432 -0.143297 0.212762
95 1 F 9.29642 10.0576 5.39884 0.299354 0.0751125 -0.0893449
96 1 F 3.67964 9.99809 5.33144 -0.130207 -0.155554 -0.00994066
97 1 F 10.7308 2.68305 0.816065 0 0 0
98 1 F 1.98354 4.19694 7.37739 0.0688317 0.478779 0.345721
99 1 F 10.5453 9.22284 7.28749 -0.117537 0.0531857 -0.0995272
100 1 F 4.64443 9.46545 7.46302 0.285093 -0.0997099 0.12564
101 1 F 7.81752 7.72902 0.816065 0 0 0
102 1 F 7.77271 4.27695 7.37561 -0.137597 -0.202763 -0.315132
103 2 H 9.56434 1.88421 8.71839 -0.0662874 -0.104948 0.575026
104 2 H 4.34717 4.87107 15.0391 0.0434105 -0.0666338 0.262564
105 2 H 3.30136 1.65937 8.85134 -0.47772 -0.190418 0.560753
106 2 H 8.60993 -0.785511 12.953 0.0160474 -0.680371 0.426285
107 2 H 7.38114 0.393249 4.80719 0.569748 0.178884 -0.0481668
108 2 H 0.899278 0.655703 9.30085 -0.0381156 -0.227376 0.252608
109 2 H 4.26707 5.85124 4.68812 -0.441673 -0.423815 0.301845
110 2 H 7.00851 10.0929 11.6949 0.609457 0.0557428 0.471971
111 2 H 10.1127 6.08373 4.97755 0.486709 0.294265 0.0980199
112 2 H 4.71123 1.17363 8.11129 0.0210816 -0.112095 -0.121478
113 2 H 0.110554 6.31343 7.10957 -0.354392 -0.56627 -0.302284