LAMMPS data file via write_data, version 2 Aug 2023, timestep = 1000, units = metal

178 atoms
5 atom types

0 11.6531699554688 xlo xhi
0 10.0919412160536 ylo yhi
0 37.142611 zlo zhi

Masses

1 18.998403163
2 1.008
3 126.90447
4 14.007
5 28.085

Atoms # atomic

6 1 2.464689 2.6830460000000005 0.8160649999999999 0 0 0
20 1 2.463813 1.274072 2.800346 0 0 0
36 1 3.6844579999999993 3.388292 2.800346 0 0 0
65 1 3.6844579999999993 0.570344 0.8160649999999999 0 0 0
91 2 0.771166 0.296822 1.3692119999999997 0 0 0
93 2 2.843523 4.857278 0 0 0 0
105 2 0.771166 4.628112 3.303851 0 0 0
109 2 0.771166 3.660802 1.93343 0 0 0
133 2 1.60888 3.177147 3.303851 0 0 0
141 2 0.771166 1.26785 0 0 0 0
160 4 0.771166 3.660802 2.959756 0 0 0
163 4 0.771166 0.296822 0.342545 0 0 0
177 5 3.6844579999999993 1.978812 1.801686 0 0 0
10 1 4.905104 1.274072 2.800346 0 0 0
32 1 4.904228 2.6830460000000005 0.8160649999999999 0 0 0
90 2 6.597750999999999 0.296822 1.3692119999999997 0 0 0
96 2 6.597750999999999 4.628112 3.303851 0 0 0
108 2 6.597750999999999 3.660802 1.93343 0 0 0
115 2 4.525393 4.857278 0 0 0 0
119 2 5.760036 3.177147 3.303851 0 0 0
142 2 6.597750999999999 1.26785 0 0 0 0
146 2 7.435464999999999 3.177147 3.303851 0 0 0
155 4 6.597750999999999 3.660802 2.959756 0 0 0
156 4 6.597750999999999 0.296822 0.342545 0 0 0
5 1 8.291273999999998 2.6830460000000005 0.8160649999999999 0 0 0
9 1 10.731689 1.274072 2.800346 0 0 0
31 1 10.730812999999998 2.6830460000000005 0.8160649999999999 0 0 0
35 1 9.511043 3.388292 2.800346 0 0 0
42 1 8.290398 1.274072 2.800346 0 0 0
66 1 9.511043 0.570344 0.8160649999999999 0 0 0
92 2 8.670108 4.857278 0 0 0 0
113 2 10.351978 4.857278 0 0 0 0
120 2 11.586621 3.177147 3.303851 0 0 0
171 5 9.511043 1.978812 1.801686 0 0 0
8 1 1.991811 6.320043 2.800346 0 0 0
30 1 1.990935 7.729017 0.8160649999999999 0 0 0
34 1 0.771166 8.434263 2.800346 0 0 0
67 1 0.771166 5.616314 0.8160649999999999 0 0 0
89 2 3.6844579999999993 5.342792000000001 1.3692119999999997 0 0 0
110 2 1.612101 9.903249 0 0 0 0
112 2 3.6844579999999993 8.706773 1.93343 0 0 0
117 2 2.846743 8.223118 3.303851 0 0 0
126 2 3.6844579999999993 9.674083 3.303851 0 0 0
139 2 3.6844579999999993 6.313821000000001 0 0 0 0
164 4 3.6844579999999993 8.706773 2.959756 0 0 0
166 4 3.6844579999999993 5.342792000000001 0.342545 0 0 0
176 5 0.771166 7.024783000000001 1.801686 0 0 0
4 1 5.377981 7.729017 0.8160649999999999 0 0 0
33 1 6.597750999999999 8.434263 2.800346 0 0 0
62 1 5.377105 6.320043 2.800346 0 0 0
68 1 6.597750999999999 5.616314 0.8160649999999999 0 0 0
95 2 5.756815 9.903249 0 0 0 0
135 2 4.522173 8.223118 3.303851 0 0 0
147 2 7.438686 9.903249 0 0 0 0
175 5 6.597750999999999 7.024783000000001 1.801686 0 0 0
1 1 7.81752 7.729017 0.8160649999999999 0 0 0
3 1 11.204566 7.729017 0.8160649999999999 0 0 0
7 1 7.818396 6.320043 2.800346 0 0 0
43 1 11.20369 6.320043 2.800346 0 0 0
88 2 9.511043 5.342792000000001 1.3692119999999997 0 0 0
94 2 11.5834 9.903249 0 0 0 0
106 2 9.511043 9.674083 3.303851 0 0 0
111 2 9.511043 8.706773 1.93343 0 0 0
118 2 8.673328 8.223118 3.303851 0 0 0
134 2 10.348758 8.223118 3.303851 0 0 0
140 2 9.511043 6.313821000000001 0 0 0 0
165 4 9.511043 5.342792000000001 0.342545 0 0 0
168 4 9.511043 8.706773 2.959756 0 0 0
13 1 2.0407863494690415 3.2854773929280414 5.648011497615034 0 0 0
19 1 0.7797719472370199 2.2989189123257066 7.517513721335884 0 0 0
24 1 3.6784888353916845 0.3379294028675207 5.326594178551509 0 1 0
26 1 1.7713902445895953 4.4728268046296815 7.7116815828664285 0 0 0
84 2 1.7623186366370749 0.2873341349042253 5.255915758667456 0 0 0
85 2 0.42082217729638094 0.9622740865527752 5.955101069507246 0 0 0
132 2 3.143416323376558 3.074494609587299 8.421012540375216 0 0 0
138 2 3.0815769910112047 4.610190473768293 5.26154078431626 0 0 0
162 4 0.7476360272725939 0.3451864169340655 5.199354318036977 0 0 0
173 5 0.6848169276007163 3.760006379366688 6.605901774226264 0 0 0
2 1 6.683750372845373 2.40106745683356 7.4360339395646635 0 0 0
17 1 5.4787232428930075 4.637453762480583 7.530260829171061 0 0 0
39 1 5.463888391173119 3.1912561732400055 5.529113723746961 0 0 0
86 2 6.527920049408187 1.0441426756734142 6.003553256181302 0 0 0
102 2 7.600909512877913 0.7014843360906622 4.762685560868041 0 0 0
143 2 5.951551211852695 1.0411507105941047 4.456275660280349 0 0 0
167 4 6.61699699977272 0.5909835479025753 5.09714402704697 0 0 0
172 5 6.680129592819074 3.8522957394452684 6.564031537276178 0 0 0
14 1 7.910635069558419 3.15255280647286 5.550289544578063 0 0 0
18 1 11.032632470323822 4.3584345347034175 7.494092488058599 0 0 0
22 1 11.263555336685343 2.934857459204139 5.499216103224358 0 0 0
25 1 8.036909749162579 4.50943447210821 7.454294998736948 0 0 0
83 1 9.43096786861783 9.988412586616645 5.5315526496898455 0 0 0
97 2 9.010874332444454 2.2996526591665734 6.9769145081389 0 0 0
131 2 9.43681355140414 4.6765345338072395 4.288633865164528 0 0 0
144 2 0.4642517836884386 0.8034318584147923 4.302519444389834 1 0 0
15 1 2.5829508339263243 9.669894626947126 7.3053020277954905 0 0 0
37 1 2.776310707448468 8.104644446145699 5.543743770520522 0 0 0
40 1 4.070236262913737 7.68893120596945 7.435890020897755 0 0 0
41 1 0.5994576831357059 5.222349222357309 5.6316805222791055 0 0 0
98 2 0.6893347988415965 6.56993463065442 6.824410205745605 0 0 0
99 2 4.329261976549706 5.401976540355006 6.123339720284141 0 0 0
137 2 0.263837798217293 9.526555564416142 5.284303131229859 0 0 0
145 2 3.1515383161216493 6.336299011521444 5.417009284457679 0 0 0
170 4 3.698700956570329 5.465525751037316 5.30156047109021 0 0 0
174 5 3.893856528702987 9.125843162960445 6.428511339707156 0 0 0
11 1 5.228093399741008 8.501407884946413 5.494361966795373 0 0 0
23 1 6.709240467680519 5.315828168237283 5.619306547366057 0 0 0
28 1 5.018127151769678 9.98258505566122 7.3232834813768 0 0 0
103 2 4.285188873458187 5.576572523080531 4.466013600548659 0 0 0
114 2 6.99892497239856 6.807990942820536 7.008610979620689 0 0 0
136 2 6.3408587455136916 9.681255847866392 5.180290651236308 0 0 0
12 1 10.81355984145664 8.052659788236564 5.364283105695616 0 0 0
16 1 8.473486628017366 9.185796421967206 7.558593035482222 0 0 0
21 1 9.826177471662742 7.154631249606598 7.393585296397555 0 0 0
27 1 10.866431021799544 9.31865075679794 7.385219058075816 0 0 0
38 1 8.416054840994972 7.819366144939702 5.514152860574947 0 0 0
104 2 10.551248531152426 5.684075622232935 4.958990860138896 0 0 0
107 2 8.964391025524666 6.167937667608256 4.909173215644237 0 0 0
116 2 9.346443922158208 4.900656522266912 5.947519366576418 0 0 0
169 4 9.567406136156626 5.353208424720761 5.034826598939166 0 0 0
178 5 9.612613193505469 8.558420890349167 6.459293605745605 0 0 0
45 1 11.283215466105519 6.265419531345594 9.995943238505319 0 0 0
87 2 3.2305171464546327 1.5702324938391428 7.681871608855608 0 0 0
101 2 3.47659779611718 1.7006990480863986 9.267282334165055 0 0 0
157 4 3.65677624874286 2.1798487348113165 8.386184934978383 0 0 0
121 2 4.662918870004247 2.285583827812242 8.19149900564352 0 0 0
69 1 7.094129786136848 2.460603449308903 10.326311303244298 0 0 0
70 1 8.657578165447852 0.29330285627656394 10.387933226676028 0 0 0
122 2 9.119750053926708 0.8753747591281668 7.858018140346893 0 0 0
123 2 10.294946694925605 2.084590528257737 8.062027319407637 0 0 0
127 2 8.781798901614497 2.3483330501075446 8.665011581595476 0 0 0
150 3 9.439527384409491 5.6289646786673995 9.792746417147724 0 0 0
158 4 9.291321329999844 1.8817160298083453 7.897185527413988 0 0 0
124 2 1.9889706296619198 7.371559503673132 7.514964423202171 0 0 0
128 2 0.7872533562262671 6.779926745691391 8.488859357428035 0 0 0
159 4 0.9913804728252047 7.1875615252960285 7.5736964345359565 0 0 0
100 2 6.859439313225708 6.625488434524261 8.668426168121572 0 0 0
125 2 7.197334078595714 8.116891692760364 7.997999075229607 0 0 0
129 2 5.634090427902035 7.402320696745782 7.809720067468916 0 0 0
161 4 6.672065871202358 7.249850642573232 7.883838881003443 0 0 0
63 1 8.978525500225178 7.432253392967115 10.131912647892687 0 0 0
130 2 0.511004174246602 8.104287492779743 7.508042871080608 1 0 0
75 1 1.229858093844376 0.8330231034229204 10.764399020863829 0 0 0
76 1 2.610910926908697 3.232274997494795 10.419284394727836 0 0 0
78 1 2.1214677679501266 2.0814034888757327 12.657567172436012 0 0 0
153 3 0.9555337070369055 2.701138005312207 11.354613391287824 0 0 0
50 1 4.465581117753369 8.36388559786675 12.68371053765024 0 0 0
72 1 6.497583651500954 2.27806197572224 12.851645001460131 0 0 0
73 1 6.31047138163676 0.2843059291143624 11.37120155956313 0 0 0
44 1 9.976397916491024 3.667686012782919 10.107492656462847 0 0 0
74 1 11.316192409482214 2.102393137153574 12.623345187357323 -1 0 0
77 1 1.0321657519529681 4.297887880475232 12.398029889054907 0 0 0
149 3 7.761593782489416 1.3620676930069777 11.776387079078557 0 0 0
47 1 3.4725284806500585 6.20638592992151 11.664164258941803 0 0 0
48 1 2.555016234942451 7.442876363379817 9.507964397065203 0 0 0
49 1 3.9256998635908684 9.713933502497754 10.451869994029865 0 0 0
51 1 5.014655334970273 7.544504494205279 10.323458542193366 0 0 0
82 1 8.773375387594257 6.471567720996168 15.16744061566895 0 0 0
151 3 3.393554994146629 8.013716028910556 11.160255883340952 0 0 0
46 1 9.354189354430686 5.463646879783212 11.665556949702342 0 0 0
61 1 7.523001296114849 5.230066531717996 9.937634930252264 0 0 0
71 1 8.00210359264387 0.05201182181568301 13.139025012433489 0 0 0
52 1 2.219471683704185 0.7006353655823934 20.087014054638054 0 0 0
53 1 2.9692651940498904 3.232937642968629 20.494821111307 0 0 0
54 1 5.228552499364231 2.750761245591556 19.120764495521584 0 0 0
55 1 4.416224569717212 0.24358949633518978 18.74659252335196 0 0 0
56 1 2.9723266107802067 2.23261139010289 18.28719174935151 0 0 0
81 1 9.472366422529573 4.060960453895357 14.836187913640286 0 0 0
152 3 3.8250684943983915 1.6784834672997446 19.851092090241508 0 0 0
29 1 10.435470806787196 1.3494366925995973 16.54968540899943 0 0 0
57 1 9.213738855952293 9.279972157572189 16.3489319250185 0 -1 0
58 1 8.114297529930553 1.5743258518982484 15.78173928288239 0 0 0
59 1 8.903139520735163 2.575861921754211 18.060375905739598 0 0 0
60 1 10.058281956587166 0.18475194083752036 18.706557483570172 0 0 0
80 1 10.995492736430286 5.841277148923188 16.108388268932924 0 0 0
148 3 8.866195607037577 0.763927888150569 17.334807224572526 0 0 0
64 1 7.328470555379155 4.705765433710735 16.21075661468431 0 0 0
79 1 8.85140736893584 6.5417020384671085 17.62786637828346 0 0 0
154 3 9.203720013427935 5.164559444402579 16.376658559137418 0 0 0

Velocities

6 0 0 0
20 0 0 0
36 0 0 0
65 0 0 0
91 0 0 0
93 0 0 0
105 0 0 0
109 0 0 0
133 0 0 0
141 0 0 0
160 0 0 0
163 0 0 0
177 0 0 0
10 0 0 0
32 0 0 0
90 0 0 0
96 0 0 0
108 0 0 0
115 0 0 0
119 0 0 0
142 0 0 0
146 0 0 0
155 0 0 0
156 0 0 0
5 0 0 0
9 0 0 0
31 0 0 0
35 0 0 0
42 0 0 0
66 0 0 0
92 0 0 0
113 0 0 0
120 0 0 0
171 0 0 0
8 0 0 0
30 0 0 0
34 0 0 0
67 0 0 0
89 0 0 0
110 0 0 0
112 0 0 0
117 0 0 0
126 0 0 0
139 0 0 0
164 0 0 0
166 0 0 0
176 0 0 0
4 0 0 0
33 0 0 0
62 0 0 0
68 0 0 0
95 0 0 0
135 0 0 0
147 0 0 0
175 0 0 0
1 0 0 0
3 0 0 0
7 0 0 0
43 0 0 0
88 0 0 0
94 0 0 0
106 0 0 0
111 0 0 0
118 0 0 0
134 0 0 0
140 0 0 0
165 0 0 0
168 0 0 0
13 -2.795533483560124 -3.247833899111097 1.3082925208782845
19 -1.3249396925241552 1.4805241389078285 -2.091319959736217
24 -0.3711552789517568 1.3617946078328464 2.321882749789766
26 -3.776358495875188 -1.4160157798828938 1.736612040422454
84 2.2633473460530786 -12.753664999274143 -3.8595712342811734
85 -4.411467485699736 5.964234556977488 9.715517235354001
132 1.5859121682209807 -9.386326028160124 4.967793602395428
138 -15.86296613810247 -2.1102490114816637 6.139714001015975
162 -0.02655655700309816 -0.6857472108916084 -1.2123425916210266
173 2.7638012101986247 -5.634787173704735 1.2871013551769985
2 0.047505449092391884 -1.6342723556508918 -1.238271603414062
17 -2.1592607213884865 -4.312469994602425 -0.9511403707089313
39 1.2971081671909126 -2.8949857196263613 -2.8463914545337943
86 5.570940850922999 2.050432851585879 -10.791537041015154
102 3.5257124924206495 3.2574434473672857 6.05072172938758
143 16.560086231802682 -3.582298303383647 -3.9357893416430323
167 -2.5653433594034576 -3.8516952924207724 -4.02770190342248
172 1.4699134532597284 -0.193147252307929 -0.9174540447833456
14 -0.0188336780932559 2.00553160241591 1.1876747761267117
18 -0.8461275858913915 -2.1500047683028187 0.6918135248490033
22 -2.477917932307231 -1.4724374006661176 0.6951190331307107
25 -1.9815273709128105 1.8215241514350955 0.46481462075853125
83 3.320328387927457 -1.0976992818351927 1.2341118376739917
97 -1.8201511246926136 -10.454542250140024 7.634599166398401
131 -7.0916318027554235 -0.7888521147928249 -16.751851554679853
144 -8.733115510074027 2.148639118597116 28.07143595583509
15 -3.846345702481075 -2.017674935488299 4.703472628046874
37 -1.7193932064549722 2.2467587008194894 -5.640236156568561
40 -3.3357012969941677 -2.929667093012596 -0.008559302668639114
41 0.19642571259486497 -4.7953570590885874 -0.8839815999728534
98 1.1539152231956564 -26.2323111596356 14.603903281706458
99 2.677324677158389 -10.797188620719126 12.801217999896597
137 -7.245778562041369 3.44070081623763 -11.355052736687012
145 2.2996542413457135 3.9544872926228516 -3.699940432515174
170 -4.690512884111592 -1.5729149798211675 1.373333059564242
174 -1.6888379775062439 -2.5474761469248617 -1.409562088860315
11 -2.9082830405427655 -1.556293235168642 0.27382024597290344
23 1.2900783345708644 -1.2942926065438025 -0.20171564026286404
28 -2.0274029451496944 3.3563488954572507 1.5726186212585977
103 2.514906938703466 -3.5690764085612376 -1.8173450113904939
114 15.160080056801007 3.1442329878466975 11.69641284301449
136 -4.078366549929392 -5.6245424183542365 24.557916659627793
12 0.7436575912989236 -3.3616975957203072 2.0483419150495124
16 -0.6682905905592139 1.062269819799365 0.44173035065193567
21 -5.123586346376927 -2.210935229370397 1.3563178121089998
27 -2.0795924487062414 -2.8434429150065297 3.186512405927662
38 -0.4674239947292779 0.24827191773820462 0.17320896952325615
104 6.212608343755662 15.66767491971897 13.06524476533073
107 10.350608413653271 -2.695522843744438 -4.764195381504966
116 -1.1989364792689599 4.0838867813463 -8.814842322238947
169 -3.136059427812367 3.2998854680599936 0.7884232160126857
178 -1.444267042808498 -1.8760584471251616 2.407669820519489
45 -3.6268958055091542 1.791855651845902 -5.422459394315132
87 -11.905733211117038 -0.19292864139912178 2.3254632184039483
101 9.616981175525469 -8.002665683443668 -4.0913255641805195
157 1.7992163028699806 -2.7834027307890135 5.528213794853437
121 5.068938670653923 -0.38898626777140766 -3.073317378535829
69 -6.282313438113753 -2.245970101736628 2.0436560726456774
70 -0.9447116977341499 -0.17072736554468332 -0.9834086147783594
122 -5.55141610520558 -7.0661335077065655 -22.311201985682942
123 3.4530812008568885 -16.21210318652243 3.640675937792952
127 5.517388935614723 5.027838071840661 10.272654754187144
150 -2.0654369961001997 -0.798416464219889 -0.09130519424007594
158 -2.642404632765185 -3.922468876046077 -1.2302550590110204
124 -1.8027224614527806 -0.5641049971948774 4.6158411750310435
128 -8.61092370307874 -5.897862373520745 4.048757990337049
159 -0.004875363746685795 -5.459276513094894 3.104875266843192
100 3.952470371517469 -6.464131224718884 12.278157066568323
125 -1.186366988099817 1.1764765606229657 14.22099570711052
129 7.558478864933432 5.569190278289816 -9.88105506200345
161 -0.3529712594145175 2.927968997776906 -0.19955916164595303
63 0.67720515276602 -1.2360312377782692 2.127410339665154
130 -3.7475154715643892 1.751738709955939 -8.978625771813157
75 -2.029846324808393 -0.4147721908310237 0.2060830802847208
76 -2.667962973654983 1.6854241763928555 -1.3927377492560116
78 6.817604245888863 2.3680709069353036 -5.654273808629877
153 -1.1665787537421048 0.43854104893445023 -3.3756525760702965
50 2.6899889291205805 -0.8715594769078784 4.137718372436755
72 1.6956712184865883 3.868393364244718 2.3513801101593717
73 -0.453494604406679 -2.540698165621679 0.9055228114594773
44 -2.797265089479532 4.411680269248291 0.7593747028635268
74 4.375733978237122 4.064214662889992 -0.20330685403774099
77 4.973350464622154 3.894219710729218 -5.611621864354604
149 -0.7885278713649494 -0.015199261461259269 1.69433642744408
47 -3.976137856663746 -0.044475290276782244 -1.147874954370639
48 -1.709369192392858 0.9839586731261072 2.1907818111573936
49 3.4663513790660265 -0.3175552857481356 -0.9657823303501639
51 -1.7215384629778654 -0.32097948523346326 1.3833850128822085
82 5.048737169778779 -5.866015327791481 -1.516597116050812
151 -1.992615976592263 0.3211580933076484 1.3544690997580073
46 4.891740961622523 -0.7153286348100641 -0.7710485972575134
61 -2.577743738521354 -4.373269194871435 -1.4402764614033874
71 3.8371475033215074 4.494210119628443 -4.005094671810128
52 2.5897763042338817 -1.1864019772773213 4.529594089616251
53 1.9768596587137457 -1.5010382654884187 6.828231527470612
54 0.6086811376659962 -2.174702673501009 -3.227869565783795
55 1.9629685185317782 1.4088413161944933 5.78591298315672
56 4.018983753325311 -0.7444723813904172 0.7860676595037196
81 2.3617554526241444 -1.0786381324139616 -0.1318686953725368
152 -0.09769506929050173 -0.27243876666084715 1.7768175826178854
29 -0.3724249202441279 -4.0319306057093485 2.1987039540834816
57 -4.101686520418825 1.2612331243555874 -0.5556864726363353
58 2.805222998097978 3.6831157281527545 -2.1112823598879515
59 0.694326628572647 1.0648283919379797 -2.8762896793572934
60 -5.759921756919163 -2.7087754855877155 1.4191726793003065
80 0.10676280394935501 -0.2708802139835245 -0.7829367626113239
148 -0.7416637257625206 -0.6235544266949219 -1.1310607189217787
64 1.4673925003795407 -0.1151723831864531 -0.02208909787944516
79 -0.6365069635012832 1.008552294425837 -2.4293618785796283
154 1.653631510631013 -0.86717009532261 0.31639692020237725
