LAMMPS data file via write_data, version 2 Aug 2023, timestep = 1000, units = metal

216 atoms
5 atom types

0 11.6531699554688 xlo xhi
0 10.0919412160536 ylo yhi
0 37.979895 zlo zhi

Masses

1 18.998403163
2 1.008
3 126.90447
4 14.007
5 28.085

Atoms # atomic

1 1 2.464689 2.6830460000000005 0.8160649999999999 0 0 0
5 1 2.463813 1.274072 2.800346 0 0 0
9 1 3.6844579999999993 0.570344 0.8160649999999999 0 0 0
26 1 3.6844579999999993 3.388292 2.800346 0 0 0
121 2 0.771166 3.660802 1.9334300000000002 0 0 0
125 2 0.771166 4.628112 3.3038510000000003 0 0 0
158 2 2.843523 4.857278 0 0 0 0
176 2 1.60888 3.177147 3.3038510000000003 0 0 0
181 2 0.771166 0.296822 1.3692119999999999 0 0 0
184 2 0.771166 1.26785 0 0 0 0
196 4 0.771166 3.660802 2.959756 0 0 0
198 4 0.771166 0.296822 0.342545 0 0 0
210 5 3.6844579999999993 1.978812 1.801686 0 0 0
41 1 4.905104 1.274072 2.800346 0 0 0
90 1 4.904228 2.6830460000000005 0.8160649999999999 0 0 0
117 2 4.525393 4.857278 0 0 0 0
122 2 6.597750999999999 3.660802 1.9334300000000002 0 0 0
132 2 5.760036 3.177147 3.3038510000000003 0 0 0
152 2 6.597750999999999 4.628112 3.3038510000000003 0 0 0
163 2 6.597750999999999 1.26785 0 0 0 0
177 2 7.435464999999999 3.177147 3.3038510000000003 0 0 0
180 2 6.597750999999999 0.296822 1.3692119999999999 0 0 0
195 4 6.597750999999999 3.660802 2.959756 0 0 0
202 4 6.597750999999999 0.296822 0.342545 0 0 0
6 1 8.290398 1.274072 2.800346 0 0 0
11 1 9.511043 0.570344 0.8160649999999999 0 0 0
25 1 9.511043 3.388292 2.800346 0 0 0
37 1 8.291273999999998 2.6830460000000005 0.8160649999999999 0 0 0
40 1 10.731689 1.274072 2.800346 0 0 0
97 1 10.730812999999998 2.6830460000000005 0.8160649999999999 0 0 0
118 2 10.351978 4.857278 0 0 0 0
134 2 11.586621 3.177147 3.3038510000000003 0 0 0
183 2 8.670108 4.857278 0 0 0 0
211 5 9.511043 1.978812 1.801686 0 0 0
20 1 0.771166 5.616314 0.8160649999999999 0 0 0
24 1 0.771166 8.434263 2.800346 0 0 0
39 1 1.991811 6.320043 2.800346 0 0 0
92 1 1.990935 7.729017 0.8160649999999999 0 0 0
114 2 3.6844579999999993 8.706773 1.9334300000000002 0 0 0
115 2 1.612101 9.903249 0 0 0 0
144 2 3.6844579999999993 9.674083 3.3038510000000003 0 0 0
160 2 3.6844579999999993 6.313821000000001 0 0 0 0
168 2 2.846743 8.223118 3.3038510000000003 0 0 0
179 2 3.6844579999999993 5.342792000000001 1.3692119999999999 0 0 0
199 4 3.6844579999999993 8.706773 2.959756 0 0 0
208 4 3.6844579999999993 5.342792000000001 0.342545 0 0 0
212 5 0.771166 7.024783000000001 1.801686 0 0 0
7 1 5.377105 6.320043 2.800346 0 0 0
12 1 6.597750999999999 5.616314 0.8160649999999999 0 0 0
36 1 5.377981 7.729017 0.8160649999999999 0 0 0
67 1 6.597750999999999 8.434263 2.800346 0 0 0
116 2 7.438686 9.903249 0 0 0 0
156 2 5.756815 9.903249 0 0 0 0
169 2 4.522173 8.223118 3.3038510000000003 0 0 0
213 5 6.597750999999999 7.024783000000001 1.801686 0 0 0
8 1 11.20369 6.320043 2.800346 0 0 0
35 1 11.204566 7.729017 0.8160649999999999 0 0 0
38 1 7.818396 6.320043 2.800346 0 0 0
101 1 7.81752 7.729017 0.8160649999999999 0 0 0
120 2 9.511043 8.706773 1.9334300000000002 0 0 0
124 2 9.511043 9.674083 3.3038510000000003 0 0 0
130 2 8.673328 8.223118 3.3038510000000003 0 0 0
159 2 9.511043 6.313821000000001 0 0 0 0
170 2 10.348758 8.223118 3.3038510000000003 0 0 0
178 2 9.511043 5.342792000000001 1.3692119999999999 0 0 0
185 2 11.5834 9.903249 0 0 0 0
200 4 9.511043 5.342792000000001 0.342545 0 0 0
203 4 9.511043 8.706773 2.959756 0 0 0
22 1 2.0981199715355077 2.8284332510177617 5.4875714844375 0 0 0
33 1 0.5671146747403931 2.2640648905851246 7.341592460924956 0 0 0
96 1 4.0985930267261335 0.06493748692258841 5.4929987134331455 0 1 0
98 1 2.0917439022191204 4.084892063601731 7.63393232281987 0 0 0
128 2 3.7498997647835557 2.5341054455549545 7.599781955689486 0 0 0
157 2 1.48231614517925 1.081335703260341 4.992103145257819 0 0 0
161 2 4.570449742638056 4.451366813024356 5.452567638103311 0 0 0
175 2 1.5136829541823735 9.963322896373663 6.153980762414571 0 -1 0
197 4 1.021347955755007 0.21941192432257992 5.3161813999181815 0 0 0
215 5 0.9226345519371859 3.6500465185969797 6.415083845135474 0 0 0
3 1 5.9863954061270475 4.234116591158777 7.705379517778288 0 0 0
29 1 5.434873383546764 3.0146293811153115 5.749851522733983 0 0 0
34 1 6.896819032612187 1.9875896028795004 7.424617386284374 0 0 0
107 2 7.356086183019071 0.8601613952868276 4.564689842513529 0 0 0
165 2 5.853965865094104 0.12351365471676544 4.837183944504049 0 0 0
174 2 6.78016456656427 0.6806949867529147 6.102118751299664 0 0 0
206 4 6.821992835140094 0.23225301083818192 5.172689957408209 0 0 0
216 5 6.957892310555488 3.418586908680726 6.528083536506313 0 0 0
4 1 11.477375097634193 4.611952686616473 7.310058994599098 0 0 0
21 1 7.829440684148689 2.6558380129389394 5.2958215712066865 0 0 0
30 1 11.313609150204678 3.242629223815829 5.350059650688889 0 0 0
95 1 9.732638852243811 0.07164248607461886 5.6576771367229854 0 1 0
102 1 8.38272779646067 3.865594023314303 7.32999540276285 0 0 0
154 2 10.799862261317845 2.1192577399952857 8.20815392550363 0 0 0
166 2 0.04077519166419741 0.42023519314510394 5.579898412301416 1 0 0
171 2 9.804650686669383 4.690103302479451 4.466499049279075 0 0 0
10 1 2.8336702166394945 9.474309448065943 7.416454076229793 0 0 0
27 1 2.6672846295973067 8.161121619617015 5.436426745864397 0 0 0
31 1 3.8820077973595435 7.275522238909966 7.336706131074062 0 0 0
94 1 1.3305378156287333 5.091698939010562 5.4652987172395235 0 0 0
155 2 1.7092346236948257 7.358152744615848 6.664819582301353 0 0 0
162 2 1.0307755115805681 9.553655900368224 4.614709283123459 0 0 0
167 2 3.052392711053691 5.196522234001683 5.1729912630846835 0 0 0
173 2 4.279643488426763 5.997995513618616 6.05502248235428 0 0 0
205 4 4.09003425726945 5.349318090299556 5.269534998173706 0 0 0
214 5 3.986044517817592 8.75730337532827 6.488858409366759 0 0 0
42 1 5.136159460090195 7.950485950067158 5.435820233207248 0 0 0
93 1 6.977840887759969 4.9159901293037525 5.613923356181298 0 0 0
100 1 5.243587855684226 9.28850477794761 7.551560385400317 0 0 0
109 2 4.4937385433641035 5.782313866916438 4.427466045042084 0 0 0
119 2 6.609157820899163 6.1686152554436005 8.04686453215948 0 0 0
164 2 7.269964369713867 9.399540526359909 5.251488684287899 0 0 0
2 1 8.489522296270057 9.461725139478167 7.590795898718457 0 0 0
23 1 10.731901660268964 7.937570680505219 5.54638698194863 0 0 0
28 1 8.351870841418334 8.174655637849336 5.562630529804197 0 0 0
32 1 9.547123386241719 7.298358132858328 7.5269664725372 0 0 0
99 1 10.968444576587755 9.315025462987625 7.548454582001441 0 0 0
111 2 10.060129591588467 6.268819874911702 5.053504256563148 0 0 0
123 2 8.560264720704412 5.494018668017632 5.243996362688608 0 0 0
172 2 9.857348781460074 4.9649603211126125 6.085037552760927 0 0 0
204 4 9.584603381763712 5.373487111179186 5.197288545825764 0 0 0
209 5 9.592805524086874 8.723930863104098 6.599468872808966 0 0 0
15 1 0.060305025573977336 3.282350355798111 10.415157986461004 0 0 0
49 1 2.330252797224679 1.1630630403624558 10.110751113347595 0 0 0
105 2 3.3461682010816114 1.619212675380392 9.002420329689652 0 0 0
108 2 1.9234103379465397 0.27306512517676607 10.021196371012493 0 0 0
112 2 4.778390045247067 1.3001181193358644 8.138948064568464 0 0 0
194 4 4.112806351549625 2.0353407729022654 8.431508312034842 0 0 0
136 2 4.628767359531348 2.7349075493199084 9.015680649994271 0 0 0
14 1 11.010419474167868 6.121912583376177 9.735312058628224 -1 0 0
47 1 9.086957573310965 4.435535821268576 10.285147272418143 0 0 0
58 1 1.3300559277953163 9.098021427802298 10.13048437742785 1 -1 0
66 1 6.7065541177591586 4.862269673281539 10.646572746969161 0 0 0
68 1 7.976973424415202 2.2390052156877376 10.485458376193098 0 0 0
103 2 9.69276406008547 0.8851911310601185 8.107285475762001 0 0 0
138 2 9.81249092035928 1.7488146896632817 9.577595751129508 0 0 0
146 2 9.143506922867942 2.4595018536729882 8.230752375236614 0 0 0
193 4 9.878660223130188 1.801511500491024 8.560846716619997 0 0 0
13 1 2.3638827701868212 6.361044594356191 9.901412522362687 0 0 0
16 1 2.602797361158844 3.859161977057172 10.533424781901095 0 0 0
113 2 0.48990670240916945 6.482865618290714 7.425423074862949 0 0 0
140 2 1.7280474261859908 7.202430199486522 8.400496556809559 0 0 0
190 3 1.0712304377313118 4.862649190856257 9.937783579036278 0 0 0
207 4 1.148132467979887 7.272548110097035 7.546923098897846 0 0 0
79 1 5.869658237647799 9.453480096395545 12.307376075820798 0 0 0
83 1 4.6838533639062145 7.4701106992126025 11.321189767250848 0 0 0
126 2 6.655303105887903 6.85231816096636 9.541476166036071 0 0 0
142 2 7.894532775483771 7.160580231007758 8.428646066959107 0 0 0
148 2 6.340358090005007 7.838408597321891 8.20771183164693 0 0 0
201 4 6.872693560464232 7.024479699147236 8.569405038296335 0 0 0
145 2 0.5286410615092667 9.283093878827323 10.650261105736517 1 -1 0
150 2 0.559511230740166 8.13545907303506 7.670770857001163 1 0 0
44 1 3.6556846789395445 2.6243290441402816 13.727061026330638 0 0 0
62 1 5.93266955977359 0.1954610382254437 15.103367721829093 0 0 0
91 1 10.861060828698859 9.55263653940219 11.088608590539955 -1 0 0
187 3 2.4889231927794735 2.025845580189221 15.252971922527841 0 0 0
61 1 5.9984805397556435 4.189376695183266 13.828852307441354 0 0 0
63 1 5.548809837453214 2.2951577546013966 11.72314244781139 0 0 0
110 2 6.850274639696024 0.4146396701028247 12.72985904372237 0 1 0
135 2 4.873462281699783 2.5065092664738424 12.364429008408342 0 0 0
43 1 1.0679230974728595 2.529732899203152 14.110711337370331 0 0 0
45 1 2.528234229064811 0.42713237357904876 14.215536109690076 0 0 0
50 1 9.009017545536969 9.081487608644673 13.931643664092887 0 -1 0
69 1 8.599123868461264 5.371303957423575 12.509683637405846 0 0 0
87 1 8.443269507752222 1.0927200122405258 16.05925335886719 0 0 0
89 1 9.62930357793523 3.0631988723679116 12.315770311844465 0 0 0
191 3 8.00189124209376 3.820258436577229 11.663054005074192 0 0 0
17 1 0.8060339116455368 5.272885814092403 11.728220586517931 0 0 0
65 1 9.44987584123509 7.822332867129727 10.278904389424 0 0 0
71 1 1.338849275899113 6.662610324730476 16.030731306381178 0 0 0
82 1 3.0769391930476977 9.074678277453794 12.354803818999763 0 0 0
137 2 5.11936113520982 0.5195319311469986 15.544267646543616 0 0 0
182 2 10.2851859583196 8.830118674603568 10.776443379564531 -1 0 0
48 1 7.6025719602228135 1.0055508587377895 12.950922465593216 0 1 0
75 1 6.611118504621365 6.968853638276256 15.865194824959966 0 0 0
80 1 6.0472320197082166 6.798996153320948 13.300601049935999 0 0 0
81 1 3.3589937122478104 6.529660596212168 13.264130347582116 0 0 0
139 2 5.8816851331198485 5.136000003296561 13.943723585307069 0 0 0
188 3 4.53119291488561 8.044728810989946 13.073013549886513 0 0 0
106 2 8.558841475481357 9.862025100212032 13.558532889004278 0 -1 0
131 2 10.072173659870726 7.079491177701495 10.027435872273967 0 0 0
18 1 3.9395414603186527 1.0162488007722459 16.356082207221636 0 0 0
19 1 1.238304588596367 1.1101790859762426 16.41880797542219 0 0 0
70 1 2.1414286039801462 6.541465894216427 18.691429487008527 0 0 0
133 2 5.027596270187358 1.9730735941234285 18.3217649600817 0 0 0
151 2 2.8040452418608055 1.6149382187975452 19.048997786169735 0 1 0
51 1 3.8891068254255465 3.9287685528417535 16.13803678215911 0 0 0
64 1 4.277962980395035 2.4120979414676014 18.757255405790453 0 0 0
85 1 6.768727298387908 4.345633904760687 16.967225005041822 0 0 0
86 1 6.4957428860643995 1.8789167665413908 17.99459223768593 0 0 0
104 2 3.7314076016804902 4.817346962082081 16.491573063284868 0 0 0
127 2 5.784058141318497 0.4380425171893924 21.489952449487284 0 1 0
53 1 10.756785645265309 0.7001696245626069 18.598461863394267 0 1 0
59 1 10.770777234950678 6.760912745064827 19.0823979636869 0 0 0
84 1 8.721634238018591 3.5456845430064807 15.176331503218593 0 0 0
88 1 8.66139369185772 2.8724100536640065 17.70713693614004 0 0 0
129 2 10.075837854052834 0.1452839835430382 18.131661875839903 0 1 0
143 2 11.272869073184479 7.598994992867481 19.077775298083772 0 0 0
189 3 7.449679314902355 2.69636830156635 16.34793348292416 0 0 0
46 1 4.076469644165221 8.240068814219567 18.084644498464886 0 0 0
55 1 2.1547629490558378 0.9140558298919897 19.133894501119887 0 1 0
56 1 5.095835153946032 9.953797451774795 20.185268938915243 0 0 0
72 1 3.3851597175873422 8.331736242364077 15.608716262449656 0 0 0
73 1 3.694720097114704 6.345800174440232 16.698497624232996 0 0 0
149 2 5.278644385164229 9.056374249211231 19.926396910511635 0 0 0
186 3 2.423657090845059 7.688494673735072 17.154908577052087 0 0 0
52 1 6.518076283177941 0.6981668306530046 22.049665061294824 0 1 0
60 1 5.904604446922002 7.094589749176944 19.95853036429138 0 0 0
74 1 6.618615195941019 9.133418003776228 17.623275191616397 0 0 0
78 1 7.849834275725297 7.2581207320164465 18.187595409804697 0 0 0
141 2 6.5826027525079125 7.0551003547408895 19.307050386000835 0 0 0
192 3 7.902215883755542 8.162170765459248 16.580146123476517 0 0 0
54 1 9.154054267835306 6.97208956459961 20.91380158175005 0 0 0
57 1 0.35395834303114493 8.807941691692013 18.910972789877835 1 0 0
76 1 9.227746893731062 6.8239283884614625 16.19290992156793 0 0 0
77 1 9.339305619700783 9.140155284309692 17.63818015423532 0 0 0
147 2 11.63811339365673 9.743937560937574 18.787980034512202 0 0 0
153 2 9.654646552590101 7.036946627767145 20.070970203114342 0 0 0

Velocities

1 0 0 0
5 0 0 0
9 0 0 0
26 0 0 0
121 0 0 0
125 0 0 0
158 0 0 0
176 0 0 0
181 0 0 0
184 0 0 0
196 0 0 0
198 0 0 0
210 0 0 0
41 0 0 0
90 0 0 0
117 0 0 0
122 0 0 0
132 0 0 0
152 0 0 0
163 0 0 0
177 0 0 0
180 0 0 0
195 0 0 0
202 0 0 0
6 0 0 0
11 0 0 0
25 0 0 0
37 0 0 0
40 0 0 0
97 0 0 0
118 0 0 0
134 0 0 0
183 0 0 0
211 0 0 0
20 0 0 0
24 0 0 0
39 0 0 0
92 0 0 0
114 0 0 0
115 0 0 0
144 0 0 0
160 0 0 0
168 0 0 0
179 0 0 0
199 0 0 0
208 0 0 0
212 0 0 0
7 0 0 0
12 0 0 0
36 0 0 0
67 0 0 0
116 0 0 0
156 0 0 0
169 0 0 0
213 0 0 0
8 0 0 0
35 0 0 0
38 0 0 0
101 0 0 0
120 0 0 0
124 0 0 0
130 0 0 0
159 0 0 0
170 0 0 0
178 0 0 0
185 0 0 0
200 0 0 0
203 0 0 0
22 -0.7709708464996623 -0.20862471562977442 -0.44153534867011335
33 1.3878864110356106 1.1735761286928519 1.108079422213753
96 1.1662125613400474 1.2391476542919975 2.8351383783572346
98 3.0164394342385177 3.0794704036128366 -1.3879172471212409
128 -13.340657427926368 -3.8031881864613366 2.28046864877742
157 1.7168808564416684 5.333236270243517 1.8835999619795705
161 -3.293006782231281 -0.8348125015101164 3.3250269010029627
175 -0.6381725437124828 -7.9804518400402875 -5.879326090273062
197 0.5623042735316881 1.52443498561289 1.5520358643185603
215 -0.603492588525013 0.09577235128982962 0.22787353476937083
3 2.4272931538543734 2.2448773139646603 -1.0116889937435178
29 3.5892248669774363 -0.5831355586952767 1.2919934468246244
34 0.40413937776555386 1.8431237272221581 1.0207625285748838
107 2.4575932202223925 4.410890492182135 1.545330066904032
165 2.7541917735679005 -3.249071776045253 7.803333399777752
174 0.8758540017723512 -11.498589442655044 6.757972677065441
206 -0.11115860319568614 -0.8202652658566136 2.3061945769721657
216 2.4274299650843205 1.8959619013043785 -0.18670631054288064
4 -2.30849725874136 -0.2533451303452025 -3.8599011592069603
21 -1.680153747184043 -1.0565744225142055 -0.7003478628663095
30 -2.2467063540007937 0.006436491861232299 -1.778786996223499
95 1.307026219392571 0.5731029043087776 2.147339352037142
102 -0.45693865649138365 0.9749993136797493 1.014316794621806
154 -8.897956674984473 2.167537509002129 -5.653147113439501
166 4.713619334703922 0.3231547330958951 -0.41647224399772914
171 -1.2619979622209665 -3.565368326959294 5.707104901429301
10 0.7455801601437627 0.8324825674114771 -1.5595736273259606
27 1.1935064954544685 0.16635684704042913 -1.1431155470341063
31 -2.2321293351076195 0.9329080683084991 -1.0273853068096204
94 -0.5970050917896519 -1.4838374423516945 -4.498028620938931
155 4.896586335227126 9.092179852251538 -1.8001141226301416
162 -11.06692024087261 6.24052119924425 -7.169090566667479
167 -1.036231857451247 3.441082213658939 -2.1391345771596972
173 -0.6475246009508272 -4.218792919310157 -8.709925010517457
205 -0.1815749784273379 -1.875618339743165 -2.36742999953983
214 -0.8345348336290571 -0.33943402668360945 0.5494755543848596
42 0.5794732796335595 3.8976225249270593 4.046652819551093
93 -1.08386910358565 1.952048346782303 5.389657087022133
100 -3.4995695378433354 1.412928477550753 1.5291508244969647
109 -4.894005477893812 -14.069333811917854 -5.124366806538748
119 -0.8277877461282683 -2.031724237713537 6.651159541793122
164 4.230741719082731 -2.9959276721456796 -7.233751121196972
2 3.3688564234335376 2.740939260120664 3.827510202918483
23 1.9138752079310664 -2.3512358246720564 0.6829081307976375
28 -1.1115511834492442 4.015966866218662 3.156632206479166
32 -2.4754488731566626 2.0223118592801277 -2.684406334730274
99 0.526711970051033 0.655985194323895 1.840090223634748
111 14.38389223590652 3.084288335582297 -2.8699592184570966
123 3.027500889605381 8.268290746089773 -13.060617912384371
172 -4.641022536326468 -1.2425329229178192 3.1976675888530814
204 3.6605992651502612 2.6292994693185183 -3.717229662087017
209 -1.5988281868158543 0.49650693303927457 2.099709038815795
15 -2.7041401686871183 -1.2673304201218842 -1.5400494290292075
49 -0.03803343169174029 0.2507347707356643 6.282625038870203
105 12.334763604899223 -2.8502049093201296 16.57958810588838
108 -9.261916794561 9.608572816357926 -7.636842675560963
112 4.391851573446466 1.4125168419476102 -6.899775038858809
194 -0.15394947975866502 1.7014024544582094 -2.122328560318276
136 4.793179593296453 -0.5201387690537325 -4.2277222694720535
14 -2.6263092367532237 -0.8446602002557951 -1.9400261387296678
47 -0.3629033184075032 4.021173009087682 0.8327077007494982
58 2.493267593635925 4.972301839684014 -1.9797702295876067
66 -2.1941950007716757 -0.05658812672822318 3.189014825787517
68 -1.267560083007671 -2.2928100940431673 4.58613986797601
103 -6.352118870521771 -4.767436926505122 8.77021849345282
138 -14.483993911265149 9.981699604116223 1.9082162706251726
146 -2.207112174995833 6.027369200571379 -11.403403100064253
193 -3.313177803636402 1.3612323580929866 -4.822443376376899
13 -2.4644685677760316 1.7498530790495046 -0.07582736651270017
16 -2.5905220835270315 0.5868177321230249 1.87226521351194
113 -3.651635998573663 0.32908581777704415 2.152587440082299
140 2.3925068531634 -4.711718444372785 4.919192769170397
190 -1.3612272745971778 -1.4029063856509263 -0.5792793736754284
207 -5.016556395745277 -0.7420049313685689 1.5568470864595108
79 4.35875050980055 0.46723384140251695 2.503386730930772
83 -1.840598887594948 5.164428425369403 -1.1006768585537687
126 14.05092903390032 -10.421406303949155 -5.039586860289716
142 -0.3350201205872929 4.96707880692328 -1.4559824024406414
148 -12.536885840687884 0.02246997602375913 5.925073440747667
201 0.5514725697575509 -2.478969546912417 1.133692778656758
145 6.724337500510441 -0.4085872830396018 -5.5882248176593174
150 -7.858564561859769 -3.5383858979612643 6.58961175950116
44 7.711449928324991 -1.92106325783123 -0.1525741845675603
62 1.9381540655363045 -8.80235869597494 7.2963063562825825
91 -0.34137366244390943 -4.698295630410472 -1.413675016767315
187 1.5099197775949573 2.196606647765303 -0.8804560962629571
61 0.9853085887337732 -3.792361683217203 -0.0952287068863129
63 1.5009931116689466 2.7011427532117813 2.3482382443276277
110 -5.754082109436794 3.5652999109691548 -12.491056981958224
135 -4.54606356796887 19.738961562305374 3.3310142578852155
43 -8.202765396798162 0.796447416520183 0.11968446387980433
45 -0.3112561813943559 3.3756360615100034 1.776203989651625
50 -4.5945450845014975 0.3323333277709838 3.4954279831666826
69 -0.7002255240510111 -1.0484706408690385 0.36970906069053705
87 0.05689896372701732 -1.9000096085271863 -1.414539134641446
89 0.3706924583814824 2.083664378234244 -1.3854262107131354
191 -0.5082238294396185 0.3382043236017275 3.211044025812181
17 -2.4361586104935276 2.9036361874503434 1.5660863697019651
65 -5.0370161509528595 -1.4413508756114874 -7.547988561611887
71 -1.6267204632338506 -1.4175092392511162 -5.717963642523901
82 0.24980980392970994 3.555976150481475 -3.7857440831633205
137 1.8675906866181715 0.9479000453866077 -5.219288756142387
182 -31.41418533043478 6.169163171872455 -15.425018918310265
48 -4.017512082725001 -1.0438965341911814 1.5930799920030339
75 2.822649026364849 2.054675225157774 -0.7697906276731884
80 0.09948185756727901 -4.611983836367562 -4.565889120672764
81 -0.43518385460035175 0.32516332986339763 2.835739436339736
139 -31.106021047683047 -6.81531008708701 -17.143504362755728
188 -1.5519460389196973 0.26672944952624134 1.9687310564533353
106 -19.648652034593077 6.117357312957696 -2.7934582849678953
131 -10.350417091453956 9.17448468644649 -11.021827024054337
18 -2.5219010913463458 1.0708956409771475 6.645882005082067
19 5.12508798195753 -5.891675192708507 -5.562077770229507
70 10.610345782516259 -1.8696769884491624 -0.3645618167556378
133 13.393248253976012 -4.625747706148093 26.011806095020333
151 13.891410878985427 -11.819696008422683 -8.798897714521434
51 4.984361512042684 0.8735543431314675 0.28478384897584624
64 -1.51215203372379 0.182108848059775 -0.819616388538634
85 2.528598770941043 0.9572920844133084 1.8329414035471905
86 3.7292874146465693 -1.693336185661757 0.6974259238949209
104 -14.06872835665973 -3.7663022198124247 -1.2615775788758572
127 -3.795593104369107 -2.9973656377092524 6.952605828193769
53 -1.2444638142492286 1.691493247335939 5.290063644866206
59 -6.7943812291598356 6.807372251932984 2.609352470257431
84 0.6859013335945331 1.2582457887901182 -2.2905669144748457
88 1.5855082588668374 0.18755296532121668 -1.213839337749322
129 12.44724778920264 0.012757656197906983 -8.9645421501032
143 26.821100497165077 -11.3749754511896 -12.113008517264207
189 0.15367672032358703 1.0458359726816417 2.5625163973097815
46 2.869369929334754 -6.733847077673356 1.3239691178459778
55 3.8852049448072212 2.008407510612457 0.8201559014499595
56 7.484235271546009 -5.297168899239425 -4.596877771650341
72 -5.415445444496195 4.723692049297298 5.9204856926208
73 1.2404921153326383 -2.1015968678929124 -0.7120668355838815
149 7.52138411920396 -6.320617942563841 18.292065202015046
186 2.4998704658523154 -0.6211702087685905 -0.40385445938487025
52 -8.725791259191507 -2.231789614652587 -0.15876370437999685
60 0.3213428907705682 7.124979058288209 0.6392036735603488
74 1.306447417099048 1.0139020699272243 1.980924091800654
78 -1.032849627618661 -3.398950828909013 0.6103671565557066
141 9.18722054759025 4.76644877322007 0.018895132962245008
192 -0.36785687296426195 1.2042516196723987 1.8231743297681875
54 -4.504965411407404 2.5566215735846356 0.1524407159644432
57 -1.1504422394398286 4.250793087577256 6.018698272919654
76 -0.3476588891973715 -6.77586513120561 -8.275754138897403
77 3.1243337103162743 -1.6458331576506375 -2.9557236308004677
147 3.2492687585384386 -2.9163523831943703 -6.091691518317154
153 23.93163458302361 -42.50133964391105 14.074968022897275
