ITEM: TIMESTEP
0
ITEM: NUMBER OF ATOMS
136
ITEM: BOX BOUNDS xy xz yz pp pp pp
0.0000000000000000e+00 1.1653509596413000e+01 0.0000000000000000e+00
0.0000000000000000e+00 1.0092235353740000e+01 0.0000000000000000e+00
0.0000000000000000e+00 2.4290024512877000e+01 0.0000000000000000e+00
ITEM: ATOMS id type element xu yu zu fx fy fz
1 1 H 2.91338 9.3789 3.80431 0 0 0
2 1 H 8.74013 9.3789 3.80431 0 0 0
3 1 H 0 4.33278 3.80431 0 0 0
4 1 H 5.82675 4.33278 3.80431 0 0 0
5 1 H 4.9855 9.60654 0.5 0 0 0
6 1 H 10.8123 9.60654 0.5 0 0 0
7 1 H 2.07212 4.56042 0.5 0 0 0
8 1 H 7.89888 4.56042 0.5 0 0 0
9 1 H 0 0 1.86676 0 0 0
10 1 H 5.82675 0 1.86676 0 0 0
11 1 H 2.91338 5.04612 1.86676 0 0 0
12 1 H 8.74013 5.04612 1.86676 0 0 0
13 1 H 0 0 6.51177 2.37802e-07 9.37434e-08 0.23005
14 1 H 5.82675 0 6.51177 1.01345e-07 3.18396e-08 0.230049
15 1 H 2.91338 5.04612 6.51177 1.47091e-07 1.27184e-08 0.23005
16 1 H 8.74013 5.04612 6.51177 -2.28421e-07 1.51893e-07 0.230049
17 1 H 0.841256 9.60654 0.5 0 0 0
18 1 H 6.66801 9.60654 0.5 0 0 0
19 1 H 3.75463 4.56042 0.5 0 0 0
20 1 H 9.58139 4.56042 0.5 0 0 0
21 1 H 2.91338 8.4102 2.43216 0 0 0
22 1 H 8.74013 8.4102 2.43216 0 0 0
23 1 H 0 3.36408 2.43216 0 0 0
24 1 H 5.82675 3.36408 2.43216 0 0 0
25 1 H 2.91338 4.07472 5.14501 -4.47068e-05 0.0351736 0.00722607
26 1 H 8.74013 4.07472 5.14501 -4.48683e-05 0.0351739 0.0072261
27 1 H 0 9.12084 5.14501 -4.46778e-05 0.0351767 0.0072273
28 1 H 5.82675 9.12084 5.14501 -4.48218e-05 0.0351768 0.00722727
29 1 H 3.7523 7.92585 3.80431 0 0 0
30 1 H 9.57905 7.92585 3.80431 0 0 0
31 1 H 0.83892 2.87973 3.80431 0 0 0
32 1 H 6.66567 2.87973 3.80431 0 0 0
33 1 H 2.91338 6.01752 0.5 0 0 0
34 1 H 8.74013 6.01752 0.5 0 0 0
35 1 H 0 0.971399 0.5 0 0 0
36 1 H 5.82675 0.971399 0.5 0 0 0
37 1 H 4.9855 0.4857 5.14501 0.0304796 -0.0175457 0.00722445
38 1 H 10.8123 0.4857 5.14501 0.0304761 -0.0175451 0.00722394
39 1 H 2.07212 5.53182 5.14501 0.0304839 -0.0175485 0.00722604
40 1 H 7.89888 5.53182 5.14501 0.030486 -0.01755 0.00722731
41 1 H 2.07446 7.92585 3.80431 0 0 0
42 1 H 7.90121 7.92585 3.80431 0 0 0
43 1 H 4.98783 2.87973 3.80431 0 0 0
44 1 H 10.8146 2.87973 3.80431 0 0 0
45 1 H 3.7523 2.16639 8.44932 0.169678 0.0958582 -0.228291
46 1 H 9.57905 2.16639 8.44932 0.169686 0.0958626 -0.228288
47 1 H 0.83892 7.21251 8.44932 0.169681 0.095859 -0.228291
48 1 H 6.66567 7.21251 8.44932 0.169678 0.095858 -0.228292
49 1 H 2.07446 2.16639 8.44932 -0.167856 0.0990176 -0.228291
50 1 H 7.90121 2.16639 8.44932 -0.167855 0.0990162 -0.228292
51 1 H 4.98783 7.21251 8.44932 -0.167861 0.0990197 -0.228289
52 1 H 10.8146 7.21251 8.44932 -0.167864 0.0990212 -0.228288
53 1 H 2.91338 1.68204 7.07718 1.19368e-07 2.05538e-07 0.0412901
54 1 H 8.74013 1.68204 7.07718 8.00593e-08 3.00516e-07 0.0412902
55 1 H 0 6.72816 7.07718 -3.71581e-08 -7.14443e-08 0.0412902
56 1 H 5.82675 6.72816 7.07718 2.10041e-07 -1.84897e-07 0.0412907
57 1 H 0.841256 0.4857 5.14501 -0.0304362 -0.0176253 0.007226
58 1 H 6.66801 0.4857 5.14501 -0.0304405 -0.0176266 0.00722701
59 1 H 3.75463 5.53182 5.14501 -0.0304414 -0.0176272 0.00722719
60 1 H 9.58139 5.53182 5.14501 -0.0304356 -0.0176243 0.00722502
61 1 H 2.91338 0.713338 8.44932 -0.00182336 -0.194877 -0.22829
62 1 H 8.74013 0.713338 8.44932 -0.00182342 -0.194877 -0.22829
63 1 H 0 5.75946 8.44932 -0.00182327 -0.194877 -0.228291
64 1 H 5.82675 5.75946 8.44932 -0.0018234 -0.194876 -0.228291
65 2 N 2.91338 8.4102 3.45939 0 0 0
66 2 N 8.74013 8.4102 3.45939 0 0 0
67 2 N 0 3.36408 3.45939 0 0 0
68 2 N 5.82675 3.36408 3.45939 0 0 0
69 2 N 2.91338 1.68204 8.10441 2.02702e-06 9.54606e-07 0.56286
70 2 N 8.74013 1.68204 8.10441 -8.54023e-06 -2.19792e-06 0.562858
71 2 N 0 6.72816 8.10441 7.08185e-06 -3.19444e-06 0.562858
72 2 N 5.82675 6.72816 8.10441 6.00072e-06 -8.64267e-07 0.562859
73 2 N 0 0 5.48664 5.08084e-06 -6.95395e-06 -0.0686248
74 2 N 5.82675 0 5.48664 5.83242e-06 -4.65568e-06 -0.0686261
75 2 N 2.91338 5.04612 5.48664 2.04518e-06 1.77464e-06 -0.0686271
76 2 N 8.74013 5.04612 5.48664 -5.55976e-06 2.07219e-08 -0.0686259
77 2 N 0 0 0.84163 0 0 0
78 2 N 5.82675 0 0.84163 0 0 0
79 2 N 2.91338 5.04612 0.84163 0 0 0
80 2 N 8.74013 5.04612 0.84163 0 0 0
81 3 F 4.1322 7.70651 5.96166 0.125628 -0.0714634 -0.236897
82 3 F 9.95896 7.70651 5.96166 0.12563 -0.0714637 -0.236899
83 3 F 1.21883 2.66039 5.96166 0.12563 -0.0714635 -0.236897
84 3 F 7.04558 2.66039 5.96166 0.125628 -0.0714638 -0.236897
85 3 F 1.69253 9.11506 7.94608 0.0672242 -0.0391603 -0.133192
86 3 F 7.51928 9.11506 7.94608 0.0672249 -0.0391607 -0.133193
87 3 F 4.6059 4.06894 7.94608 0.0672243 -0.0391618 -0.133193
88 3 F 10.4327 4.06894 7.94608 0.0672199 -0.0391614 -0.133191
89 3 F 4.13423 9.11506 7.94608 -0.0675281 -0.0386369 -0.133194
90 3 F 9.96098 9.11506 7.94608 -0.0675249 -0.038635 -0.133192
91 3 F 1.22085 4.06894 7.94608 -0.0675256 -0.038639 -0.133193
92 3 F 7.04761 4.06894 7.94608 -0.0675274 -0.0386381 -0.133193
93 3 F 2.91338 9.81757 5.96166 -0.000924072 0.144532 -0.236898
94 3 F 8.74013 9.81757 5.96166 -0.000924681 0.144532 -0.236898
95 3 F 0 4.77146 5.96166 -0.000924058 0.144528 -0.236897
96 3 F 5.82675 4.77146 5.96166 -0.000924157 0.144528 -0.236896
97 3 F 2.91338 3.09176 3.30107 0 0 0
98 3 F 8.74013 3.09176 3.30107 0 0 0
99 3 F 0 8.13788 3.30107 0 0 0
100 3 F 5.82675 8.13788 3.30107 0 0 0
101 3 F 4.1322 2.38573 1.31665 0 0 0
102 3 F 9.95896 2.38573 1.31665 0 0 0
103 3 F 1.21883 7.43185 1.31665 0 0 0
104 3 F 7.04558 7.43185 1.31665 0 0 0
105 3 F 1.69455 7.70651 5.96166 -0.124705 -0.0730651 -0.236898
106 3 F 7.52131 7.70651 5.96166 -0.124704 -0.0730652 -0.236897
107 3 F 4.60793 2.66039 5.96166 -0.124704 -0.0730657 -0.236897
108 3 F 10.4347 2.66039 5.96166 -0.124707 -0.0730663 -0.236898
109 3 F 2.91338 7.00048 7.94608 0.00030314 0.0777996 -0.133193
110 3 F 8.74013 7.00048 7.94608 0.000301602 0.0777997 -0.133194
111 3 F 0 1.95436 7.94608 0.000302433 0.0778001 -0.133193
112 3 F 5.82675 1.95436 7.94608 0.000303045 0.0777994 -0.133193
113 3 F 4.13423 0.97718 3.30107 0 0 0
114 3 F 9.96098 0.97718 3.30107 0 0 0
115 3 F 1.22085 6.0233 3.30107 0 0 0
116 3 F 7.04761 6.0233 3.30107 0 0 0
117 3 F 1.69455 2.38573 1.31665 0 0 0
118 3 F 7.52131 2.38573 1.31665 0 0 0
119 3 F 4.60793 7.43185 1.31665 0 0 0
120 3 F 10.4347 7.43185 1.31665 0 0 0
121 3 F 1.69253 0.97718 3.30107 0 0 0
122 3 F 7.51928 0.97718 3.30107 0 0 0
123 3 F 4.6059 6.0233 3.30107 0 0 0
124 3 F 10.4327 6.0233 3.30107 0 0 0
125 3 F 2.91338 0.274661 1.31665 0 0 0
126 3 F 8.74013 0.274661 1.31665 0 0 0
127 3 F 0 5.32078 1.31665 0 0 0
128 3 F 5.82675 5.32078 1.31665 0 0 0
129 4 Si 2.91338 1.68204 2.29879 0 0 0
130 4 Si 8.74013 1.68204 2.29879 0 0 0
131 4 Si 0 6.72816 2.29879 0 0 0
132 4 Si 5.82675 6.72816 2.29879 0 0 0
133 4 Si 2.91338 8.4102 6.94381 9.3505e-07 -5.0813e-06 0.981194
134 4 Si 8.74013 8.4102 6.94381 -3.25528e-06 -5.57234e-06 0.981195
135 4 Si 0 3.36408 6.94381 4.64101e-06 1.70781e-06 0.981191
136 4 Si 5.82675 3.36408 6.94381 1.22953e-07 2.14134e-06 0.98119
