LAMMPS (23 Jun 2022 - Update 4)
#LAMMPS
################################################################################
#                                 Basic Input                                  #
################################################################################
units           metal     # K, bar, ps, A
box             tilt large
boundary        p p p
newton          on

read_data       input.data
Reading data file ...
  triclinic box = (0 0 0) to (11.65351 10.092235 24.290025) with tilt (0 0 0)
  1 by 1 by 1 MPI processor grid
  reading atoms ...
  136 atoms
  read_data CPU = 0.001 seconds

variable        m_Si       equal   28.0855
variable        m_N        equal   14.0067
variable        m_H        equal   1.0078
variable        m_F        equal   18.9984

mass        1   ${m_H}
mass        1   1.0078
mass        2   ${m_N}
mass        2   14.0067
mass        3   ${m_F}
mass        3   18.9984
mass        4   ${m_Si}
mass        4   28.0855

################################################################################
#                                Pair potential                                #
################################################################################
variable        path_r0ab       string   "/data2/andynn/lammps_d3/13_rewrite_csv/r0ab_new.csv"
variable        path_c6ab       string   "/data2/andynn/lammps_d3/13_rewrite_csv/d3_pars.csv"
variable        cutoff_d3       equal   9000
variable        cutoff_d3_CN    equal   1600
variable        func_type       string  "pbe"
variable        damping_type    string  "d3_damp_bj"
variable        path_potential  string "/data2/shared_data/pretrained/7net_m3g/deployed_serial.pt"
variable        element_list    string  "H N F Si"
pair_style      hybrid/overlay  e3gnn   d3   ${cutoff_d3}  ${cutoff_d3_CN}  ${damping_type}
pair_style      hybrid/overlay  e3gnn   d3   9000  ${cutoff_d3_CN}  ${damping_type}
pair_style      hybrid/overlay  e3gnn   d3   9000  1600  ${damping_type}
pair_style      hybrid/overlay  e3gnn   d3   9000  1600  d3_damp_bj
PairE3GNN using device : CUDA
pair_coeff      * *  e3gnn  ${path_potential}  ${element_list}
pair_coeff      * *  e3gnn  /data2/shared_data/pretrained/7net_m3g/deployed_serial.pt  ${element_list}
pair_coeff      * *  e3gnn  /data2/shared_data/pretrained/7net_m3g/deployed_serial.pt  H N F Si
Chemical specie 'H' is assigned to type 1
Chemical specie 'N' is assigned to type 2
Chemical specie 'F' is assigned to type 3
Chemical specie 'Si' is assigned to type 4
from sevenn version '0.9.1' single precision model trained at 2024-05-01 is loaded
pair_coeff      * *  d3     ${path_r0ab} ${path_c6ab} ${func_type} ${element_list}
pair_coeff      * *  d3     /data2/andynn/lammps_d3/13_rewrite_csv/r0ab_new.csv ${path_c6ab} ${func_type} ${element_list}
pair_coeff      * *  d3     /data2/andynn/lammps_d3/13_rewrite_csv/r0ab_new.csv /data2/andynn/lammps_d3/13_rewrite_csv/d3_pars.csv ${func_type} ${element_list}
pair_coeff      * *  d3     /data2/andynn/lammps_d3/13_rewrite_csv/r0ab_new.csv /data2/andynn/lammps_d3/13_rewrite_csv/d3_pars.csv pbe ${element_list}
pair_coeff      * *  d3     /data2/andynn/lammps_d3/13_rewrite_csv/r0ab_new.csv /data2/andynn/lammps_d3/13_rewrite_csv/d3_pars.csv pbe H N F Si
compute my_pressure_compute all pressure NULL virial pair/hybrid d3

################################################################################
#                                Slab settings                                 #
################################################################################
variable    fix_h       equal   4.0
region      rFixed      block   INF INF INF INF 0.0 ${fix_h}
region      rFixed      block   INF INF INF INF 0.0 4
group       gBottom     region  rFixed
68 atoms in group gBottom
velocity    gBottom     set     0.0 0.0 0.0
fix         frz_bot     gBottom     setforce    0.0 0.0 0.0

################################################################################
#                                     LOG                                      #
################################################################################
variable        log_step        equal   1
thermo_style    custom          step pe vol press pxx pyy pzz pxy pyz pxz fmax
thermo          ${log_step}
thermo          1

dump            my_dump     all custom ${log_step} dump.lammps                             id type element xu yu zu fx fy fz
dump            my_dump     all custom 1 dump.lammps                             id type element xu yu zu fx fy fz
dump_modify     my_dump     sort id     element ${element_list}
dump_modify     my_dump     sort id     element H N F Si

################################################################################
#                                     Run                                      #
################################################################################
# min_style       quickmin
# minimize        0 0.02  100000 100000
run 0
WARNING: No fixes with time integration, atoms won't move (src/verlet.cpp:60)
Neighbor list info ...
  update every 1 steps, delay 10 steps, check yes
  max neighbors/atom: 2000, page size: 100000
  master list distance cutoff = 7
  ghost atom cutoff = 7
  binsize = 3.5, bins = 4 3 7
  2 neighbor lists, perpetual/occasional/extra = 2 0 0
  (1) pair e3gnn, perpetual
      attributes: full, newton on
      pair build: full/bin/atomonly
      stencil: full/bin/3d
      bin: standard
  (2) pair d3, perpetual, copy from (1)
      attributes: full, newton on
      pair build: copy
      stencil: none
      bin: none
Per MPI rank memory allocation (min/avg/max) = 4.779 | 4.779 | 4.779 Mbytes
   Step         PotEng         Volume         Press           Pxx            Pyy            Pzz            Pxy            Pyz            Pxz            Fmax     
         0  -707.67291      2856.7488     -2435.4844     -2685.03       -2685.0742     -1936.3489      0.00026481732  0.0040384118  -0.0063067622   0.98119492   
Loop time of 9.99e-07 on 1 procs for 0 steps with 136 atoms

200.2% CPU use with 1 MPI tasks x no OpenMP threads

MPI task timing breakdown:
Section |  min time  |  avg time  |  max time  |%varavg| %total
---------------------------------------------------------------
Pair    | 0          | 0          | 0          |   0.0 |  0.00
Neigh   | 0          | 0          | 0          |   0.0 |  0.00
Comm    | 0          | 0          | 0          |   0.0 |  0.00
Output  | 0          | 0          | 0          |   0.0 |  0.00
Modify  | 0          | 0          | 0          |   0.0 |  0.00
Other   |            | 9.99e-07   |            |       |100.00

Nlocal:            136 ave         136 max         136 min
Histogram: 1 0 0 0 0 0 0 0 0 0
Nghost:           1105 ave        1105 max        1105 min
Histogram: 1 0 0 0 0 0 0 0 0 0
Neighs:              0 ave           0 max           0 min
Histogram: 1 0 0 0 0 0 0 0 0 0
FullNghs:        17448 ave       17448 max       17448 min
Histogram: 1 0 0 0 0 0 0 0 0 0

Total # of neighbors = 17448
Ave neighs/atom = 128.29412
Neighbor list builds = 0
Dangerous builds = 0

################################################################################
#                                   Finalize                                   #
################################################################################
write_data      FINAL.coo
System init for write_data ...
Total wall time: 0:00:10
