ITEM: TIMESTEP
0
ITEM: NUMBER OF ATOMS
136
ITEM: BOX BOUNDS xy xz yz pp pp pp
0.0000000000000000e+00 1.1653509596413000e+01 0.0000000000000000e+00
0.0000000000000000e+00 1.0092235353740000e+01 0.0000000000000000e+00
0.0000000000000000e+00 2.4290024512877000e+01 0.0000000000000000e+00
ITEM: ATOMS id type element xu yu zu fx fy fz
1 1 H 2.91338 9.3789 3.80431 0 0 0
2 1 H 8.74013 9.3789 3.80431 0 0 0
3 1 H 0 4.33278 3.80431 0 0 0
4 1 H 5.82675 4.33278 3.80431 0 0 0
5 1 H 4.9855 9.60654 0.5 0 0 0
6 1 H 10.8123 9.60654 0.5 0 0 0
7 1 H 2.07212 4.56042 0.5 0 0 0
8 1 H 7.89888 4.56042 0.5 0 0 0
9 1 H 0 0 1.86676 0 0 0
10 1 H 5.82675 0 1.86676 0 0 0
11 1 H 2.91338 5.04612 1.86676 0 0 0
12 1 H 8.74013 5.04612 1.86676 0 0 0
13 1 H 0 0 6.51177 -7.45932e-16 1.00334e-15 -0.00163995
14 1 H 5.82675 0 6.51177 1.49608e-15 -1.20868e-16 -0.00163995
15 1 H 2.91338 5.04612 6.51177 -1.34281e-15 9.04763e-16 -0.00163995
16 1 H 8.74013 5.04612 6.51177 -3.85738e-16 1.40431e-15 -0.00163995
17 1 H 0.841256 9.60654 0.5 0 0 0
18 1 H 6.66801 9.60654 0.5 0 0 0
19 1 H 3.75463 4.56042 0.5 0 0 0
20 1 H 9.58139 4.56042 0.5 0 0 0
21 1 H 2.91338 8.4102 2.43216 0 0 0
22 1 H 8.74013 8.4102 2.43216 0 0 0
23 1 H 0 3.36408 2.43216 0 0 0
24 1 H 5.82675 3.36408 2.43216 0 0 0
25 1 H 2.91338 4.07472 5.14501 -3.56377e-15 -0.00442788 -0.00240902
26 1 H 8.74013 4.07472 5.14501 1.10057e-15 -0.00442788 -0.00240902
27 1 H 0 9.12084 5.14501 -1.0875e-15 -0.00442788 -0.00240902
28 1 H 5.82675 9.12084 5.14501 2.91143e-15 -0.00442788 -0.00240902
29 1 H 3.7523 7.92585 3.80431 0 0 0
30 1 H 9.57905 7.92585 3.80431 0 0 0
31 1 H 0.83892 2.87973 3.80431 0 0 0
32 1 H 6.66567 2.87973 3.80431 0 0 0
33 1 H 2.91338 6.01752 0.5 0 0 0
34 1 H 8.74013 6.01752 0.5 0 0 0
35 1 H 0 0.971399 0.5 0 0 0
36 1 H 5.82675 0.971399 0.5 0 0 0
37 1 H 4.9855 0.4857 5.14501 -0.00383465 0.00221394 -0.00240902
38 1 H 10.8123 0.4857 5.14501 -0.00383465 0.00221394 -0.00240902
39 1 H 2.07212 5.53182 5.14501 -0.00383465 0.00221394 -0.00240902
40 1 H 7.89888 5.53182 5.14501 -0.00383465 0.00221394 -0.00240902
41 1 H 2.07446 7.92585 3.80431 0 0 0
42 1 H 7.90121 7.92585 3.80431 0 0 0
43 1 H 4.98783 2.87973 3.80431 0 0 0
44 1 H 10.8146 2.87973 3.80431 0 0 0
45 1 H 3.7523 2.16639 8.44932 -0.000111816 -6.45567e-05 -0.0153436
46 1 H 9.57905 2.16639 8.44932 -0.000111816 -6.45567e-05 -0.0153436
47 1 H 0.83892 7.21251 8.44932 -0.000111816 -6.45567e-05 -0.0153436
48 1 H 6.66567 7.21251 8.44932 -0.000111816 -6.45567e-05 -0.0153436
49 1 H 2.07446 2.16639 8.44932 0.000111816 -6.45567e-05 -0.0153436
50 1 H 7.90121 2.16639 8.44932 0.000111816 -6.45567e-05 -0.0153436
51 1 H 4.98783 7.21251 8.44932 0.000111816 -6.45567e-05 -0.0153436
52 1 H 10.8146 7.21251 8.44932 0.000111816 -6.45567e-05 -0.0153436
53 1 H 2.91338 1.68204 7.07718 -2.25888e-15 1.64924e-15 -0.0124928
54 1 H 8.74013 1.68204 7.07718 1.18812e-15 1.10966e-15 -0.0124928
55 1 H 0 6.72816 7.07718 -9.1432e-16 -2.61253e-15 -0.0124928
56 1 H 5.82675 6.72816 7.07718 1.01823e-15 -2.78012e-15 -0.0124928
57 1 H 0.841256 0.4857 5.14501 0.00383465 0.00221394 -0.00240902
58 1 H 6.66801 0.4857 5.14501 0.00383465 0.00221394 -0.00240902
59 1 H 3.75463 5.53182 5.14501 0.00383465 0.00221394 -0.00240902
60 1 H 9.58139 5.53182 5.14501 0.00383465 0.00221394 -0.00240902
61 1 H 2.91338 0.713338 8.44932 -3.48349e-15 0.000129113 -0.0153436
62 1 H 8.74013 0.713338 8.44932 9.84274e-16 0.000129113 -0.0153436
63 1 H 0 5.75946 8.44932 -6.39371e-16 0.000129113 -0.0153436
64 1 H 5.82675 5.75946 8.44932 2.95962e-15 0.000129113 -0.0153436
65 2 N 2.91338 8.4102 3.45939 0 0 0
66 2 N 8.74013 8.4102 3.45939 0 0 0
67 2 N 0 3.36408 3.45939 0 0 0
68 2 N 5.82675 3.36408 3.45939 0 0 0
69 2 N 2.91338 1.68204 8.10441 -5.56519e-15 -3.52955e-16 -0.0326233
70 2 N 8.74013 1.68204 8.10441 1.08358e-15 1.60393e-15 -0.0326233
71 2 N 0 6.72816 8.10441 -1.34706e-15 -5.14557e-15 -0.0326233
72 2 N 5.82675 6.72816 8.10441 3.8676e-15 -6.85515e-15 -0.0326233
73 2 N 0 0 5.48664 -1.79213e-15 1.01761e-15 -0.00451449
74 2 N 5.82675 0 5.48664 1.11693e-14 -3.38522e-15 -0.00451449
75 2 N 2.91338 5.04612 5.48664 -1.10168e-14 2.32278e-15 -0.00451449
76 2 N 8.74013 5.04612 5.48664 -4.95059e-16 7.00563e-15 -0.00451449
77 2 N 0 0 0.84163 0 0 0
78 2 N 5.82675 0 0.84163 0 0 0
79 2 N 2.91338 5.04612 0.84163 0 0 0
80 2 N 8.74013 5.04612 0.84163 0 0 0
81 3 F 4.1322 7.70651 5.96166 0.00478736 -0.00276398 -0.00971983
82 3 F 9.95896 7.70651 5.96166 0.00478736 -0.00276398 -0.00971983
83 3 F 1.21883 2.66039 5.96166 0.00478736 -0.00276398 -0.00971983
84 3 F 7.04558 2.66039 5.96166 0.00478736 -0.00276398 -0.00971983
85 3 F 1.69253 9.11506 7.94608 -0.00535094 0.00308937 -0.0177821
86 3 F 7.51928 9.11506 7.94608 -0.00535094 0.00308937 -0.0177821
87 3 F 4.6059 4.06894 7.94608 -0.00535094 0.00308937 -0.0177821
88 3 F 10.4327 4.06894 7.94608 -0.00535094 0.00308937 -0.0177821
89 3 F 4.13423 9.11506 7.94608 0.00535094 0.00308937 -0.0177821
90 3 F 9.96098 9.11506 7.94608 0.00535094 0.00308937 -0.0177821
91 3 F 1.22085 4.06894 7.94608 0.00535094 0.00308937 -0.0177821
92 3 F 7.04761 4.06894 7.94608 0.00535094 0.00308937 -0.0177821
93 3 F 2.91338 9.81757 5.96166 -1.69633e-15 0.00552797 -0.00971983
94 3 F 8.74013 9.81757 5.96166 1.79892e-15 0.00552797 -0.00971983
95 3 F 0 4.77146 5.96166 -2.09823e-15 0.00552797 -0.00971983
96 3 F 5.82675 4.77146 5.96166 2.72387e-16 0.00552797 -0.00971983
97 3 F 2.91338 3.09176 3.30107 0 0 0
98 3 F 8.74013 3.09176 3.30107 0 0 0
99 3 F 0 8.13788 3.30107 0 0 0
100 3 F 5.82675 8.13788 3.30107 0 0 0
101 3 F 4.1322 2.38573 1.31665 0 0 0
102 3 F 9.95896 2.38573 1.31665 0 0 0
103 3 F 1.21883 7.43185 1.31665 0 0 0
104 3 F 7.04558 7.43185 1.31665 0 0 0
105 3 F 1.69455 7.70651 5.96166 -0.00478736 -0.00276398 -0.00971983
106 3 F 7.52131 7.70651 5.96166 -0.00478736 -0.00276398 -0.00971983
107 3 F 4.60793 2.66039 5.96166 -0.00478736 -0.00276398 -0.00971983
108 3 F 10.4347 2.66039 5.96166 -0.00478736 -0.00276398 -0.00971983
109 3 F 2.91338 7.00048 7.94608 -8.49014e-16 -0.00617873 -0.0177821
110 3 F 8.74013 7.00048 7.94608 1.0016e-15 -0.00617873 -0.0177821
111 3 F 0 1.95436 7.94608 -1.88106e-15 -0.00617873 -0.0177821
112 3 F 5.82675 1.95436 7.94608 4.41429e-16 -0.00617873 -0.0177821
113 3 F 4.13423 0.97718 3.30107 0 0 0
114 3 F 9.96098 0.97718 3.30107 0 0 0
115 3 F 1.22085 6.0233 3.30107 0 0 0
116 3 F 7.04761 6.0233 3.30107 0 0 0
117 3 F 1.69455 2.38573 1.31665 0 0 0
118 3 F 7.52131 2.38573 1.31665 0 0 0
119 3 F 4.60793 7.43185 1.31665 0 0 0
120 3 F 10.4347 7.43185 1.31665 0 0 0
121 3 F 1.69253 0.97718 3.30107 0 0 0
122 3 F 7.51928 0.97718 3.30107 0 0 0
123 3 F 4.6059 6.0233 3.30107 0 0 0
124 3 F 10.4327 6.0233 3.30107 0 0 0
125 3 F 2.91338 0.274661 1.31665 0 0 0
126 3 F 8.74013 0.274661 1.31665 0 0 0
127 3 F 0 5.32078 1.31665 0 0 0
128 3 F 5.82675 5.32078 1.31665 0 0 0
129 4 Si 2.91338 1.68204 2.29879 0 0 0
130 4 Si 8.74013 1.68204 2.29879 0 0 0
131 4 Si 0 6.72816 2.29879 0 0 0
132 4 Si 5.82675 6.72816 2.29879 0 0 0
133 4 Si 2.91338 8.4102 6.94381 -1.14265e-14 -9.6215e-15 -0.0554429
134 4 Si 8.74013 8.4102 6.94381 1.19151e-14 -1.08929e-14 -0.0554429
135 4 Si 0 3.36408 6.94381 -8.7083e-15 1.35077e-14 -0.0554429
136 4 Si 5.82675 3.36408 6.94381 1.43391e-14 1.93298e-14 -0.0554429
