(written by ASE)

190 atoms
4 atom types

0.0      11.653509596413199  xlo xhi
0.0        10.0922353537395  ylo yhi
0.0                      30  zlo zhi
                      0                       0                       0  xy xz yz

Atoms # atomic

     1   1     0.84072419425523937     0.48619554071701604      5.2208074081704368
     2   1      9.5813429027055808      5.5318535845745442      5.2203189399142129
     3   1      10.701538987346469      3.4841557759281478      10.389875665175079
     4   1      3.7533851810137895      5.5323525269453349      5.2202350278376759
     5   1      8.2231313391026273      2.8548670471600803      11.609289646906015
     6   1      6.6680474405063324     0.48507148832740293      5.2198350171472452
     7   1      2.7344059553955828      2.9747732257382697      10.402724656387795
     8   1      2.0881353177712696      2.1531831165033277       8.385925041432662
     9   1      4.9699124736839302      9.1168584947056637      10.755336726566508
    10   1      3.7546337913945762      4.5604180723228787                     0.5
    11   1      5.1002795153888121     0.78317540739015701       11.65821738049612
    12   1      6.6680111904978974      9.6065357491926271                     0.5
    13   1      3.8181312764926831      7.5215291394824257      10.406075926631392
    14   1      2.8825624428059009      9.0836813974012269      11.589756495991757
    15   1     0.92334448493573162      3.7374630799558388      10.780166424913553
    16   1      5.8110570813955924      5.7445318702012313      8.3510556335865616
    17   1  -0.0004321766532017622      5.7417651041947222      8.3931063385512701
    18   1     0.95419622166888107      5.8605504566823727      11.462575832308158
    19   1      8.7390395121645188     0.69337683976015763      8.3984710471334925
    20   1      8.8494440534891616     0.96393417910970969      10.779411793462225
    21   1      2.8871000314315722     0.72589566043496012      8.3935620688941377
    22   1      10.702280228663565      1.9380707653576532      11.528911649821708
    23   1      5.8968460003897123      2.8985700762193209        10.4361795721069
    24   1      6.6656747630207986      2.8797277837324504      3.8043095294545042
    25   1     0.83891996481419984      2.8797277837324504      3.8043095294545042
    26   1      9.5790521621241194       7.925845460602198      3.8043095294545042
    27   1 -4.3599999999999992e-14      3.3640784512465056      2.4321633756321481
    28   1      2.9142438582816652      1.6883116479410918      7.0020001054410432
    29   1      2.9127293629136792      4.0745280993393793      5.2217857629037452
    30   1       8.740132197309876      6.0175168859635022                     0.5
    31   1 -4.3599999999999992e-14     0.97139920909375399                     0.5
    32   1      5.8267547982065553     0.97139920909375399                     0.5
    33   1      4.9847795258151413     0.48516891361776504      5.2205424610065148
    34   1      6.7504729818168361      4.7034725103124941      10.381280139735829
    35   1      1.2148714638038822       1.860659720490367      11.640587099687371
    36   1       8.740132197309876      9.3788974631443622      3.8043095294545042
    37   1     0.84125639229129867      9.6065357491926271                     0.5
    38   1      7.8994586048113513      5.5319078092028269      5.2192982367158134
    39   1      5.8267547982065553      3.3640784512465056      2.4321633756321481
    40   1      8.9062310292780289      9.1344587171129863      11.252995544467582
    41   1       8.740132197309876      8.4101961281162527      2.4321633756321481
    42   1      2.9133773991032776      8.4101961281162527      2.4321633756321481
    43   1      9.5813885896011737      4.5604180723228787                     0.5
    44   1      2.9133773991032776      9.3788974631443622      3.8043095294545042
    45   1      3.0032994928405885      5.7892958177294007      10.432108638996819
    46   1      7.8968570397133426      2.1749951861060235      8.3929313979172253
    47   1      10.756437961628892      8.3570150016980413      10.743690516038116
    48   1      4.9964647594443807      7.2199277754980216      8.3689686971595645
    49   1        6.98855968681492      9.1245671853478747      10.844362604012511
    50   1      10.811741750359397      7.2320244009348595      8.3806612182137137
    51   1      3.4991082587513129      1.0186298672708858      10.418003451895745
    52   1      2.0744574342890343       7.925845460602198      3.8043095294545042
    53   1      2.9133773991032785      5.0461176768697538       1.866758950346576
    54   1      5.8267547982065997                       0       1.866758950346576
    55   1  8.9999999999999983e-16                       0       1.866758950346576
    56   1      7.8988758050185357      4.5604180723228804                     0.5
    57   1      2.0721210068119365      4.5604180723228804                     0.5
    58   1      10.812253204121857      9.6065357491926289                     0.5
    59   1      2.9133773991032776      6.0175168859635022                     0.5
    60   1      10.813241996762923     0.48542098107258935      5.2199002287284619
    61   1      2.0719702154463597      5.5319022110006681      5.2206850799718447
    62   1      8.6192948844179895      5.4777477081846531      10.688404218046763
    63   1      8.7414738847000386      4.0749035177682096      5.2202269234397152
    64   1      8.7437367065334417      5.0457631600045447      6.5886360146485741
    65   1      2.9115936245544654      5.0451912957281042      6.5908874403608344
    66   1      5.8272175796092753  0.00048739429456967203      6.5905014787446037
    67   1  1.6465841285389506e-05 -0.00022914056747576339      6.5930227637168297
    68   1      5.8268872348097682      6.7188752383955572      7.0211263941046527
    69   1      6.6475678057152114      6.7567708950658503      10.467006907913806
    70   1  -0.0032282845450029227       6.724532013011447      7.0474995347725322
    71   1      8.7411322835115701      1.6851934767978294      7.0514326289505593
    72   1      10.814589631598912      2.8797277837324491      3.8043095294545042
    73   1      7.0275480964133914       1.097864859153292      11.521620234930978
    74   1 -4.3599999999999992e-14      4.3327797862746138      3.8043095294545042
    75   1      4.9854984059152576      9.6065357491926289                     0.5
    76   1      3.7522973639175206       7.925845460602198      3.8043095294545042
    77   1      8.7401321973098778      5.0461176768697538       1.866758950346576
    78   1      3.7410583989996629      2.1689815368807297      8.3920112416754762
    79   1      4.9831439537833511        5.69354126717172      10.669970743326299
    80   1       9.593717695470156      2.1659435932234432        8.39834661490789
    81   1     0.93193659829630304      8.3500021345584408      11.308409289724104
    82   1     0.84608904079714597      7.2157404326520282       8.411404681664532
    83   1      7.9967509178447074      7.2693405807124378      11.623795056966395
    84   1      6.6613119806606047       7.216031687037713      8.3757584856148153
    85   1  0.00025359892058160845      9.1217194958374943      5.2198347844975173
    86   1      5.8267547982065553      4.3327797862746138      3.8043095294545042
    87   1      5.8268806174576611      9.1213541576420454      5.2197207645438111
    88   1      7.9012122324956335       7.925845460602198      3.8043095294545042
    89   1      10.719155585767238      6.2307704598731357      10.836777266131934
    90   1      4.9878348333923119      2.8797277837324491      3.8043095294545042
    91   1      3.8017346495749873      4.4747852556915211      11.658469125812786
    92   2      2.9134569815300799      5.0459235315628019      5.5608967511209624
    93   2      8.7400928928134185      5.0460080413580224      5.5594789007630245
    94   2      5.8267547982065997                       0     0.84163042435634416
    95   2   0.0021473363386516303      6.7255821487211138       8.076390895907128
    96   2      8.7433700763775892      1.6770877013075804      8.0808694176599545
    97   2      8.7401321973098778      5.0461176768697538     0.84163042435634416
    98   2      2.9133773991032785      5.0461176768697538     0.84163042435634416
    99   2      5.8264319521725421  0.00085109441349187794      5.5606315633264529
   100   2       8.740132197309876      8.4101961281162527      3.4593945362622507
   101   2      5.8262763514506029       6.718019115470816      8.0247546864118675
   102   2      2.9179855160746553      1.6786108369780799      8.0126861116339914
   103   2      5.8267547982065553      3.3640784512465056      3.4593945362622507
   104   2 -4.3599999999999992e-14      3.3640784512465056      3.4593945362622507
   105   2  0.00054931237869815534  4.6403785063109054e-06       5.562681670728864
   106   2  8.9999999999999983e-16                       0     0.84163042435634416
   107   2      2.9133773991032776      8.4101961281162527      3.4593945362622507
   108   3      10.439538215642708      4.0577552151783305       7.855132599280334
   109   3      2.9133773991032772      3.0917580036970467      3.3010724808649616
   110   3 -4.3599999999999992e-14      8.1378756805668004      3.3010724808649616
   111   3      5.8267547982065553      8.1378756805668004      3.3010724808649616
   112   3       4.132202971906807      2.3857284981765692      1.3166483637921624
   113   3      9.9589577701134058      2.3857284981765692      1.3166483637921624
   114   3      1.2188255728034858      7.4318461750463234      1.3166483637921624
   115   3      7.0455803710100851      7.4318461750463234      1.3166483637921624
   116   3      4.1448666151314688      9.0997428468671462      7.9253639349247944
   117   3      6.0808242251094917      7.4567028086950708       10.06323215293772
   118   3      4.7864845740906867      9.2748199153565771      11.674025177988316
   119   3      2.9304090193353214      7.0020241795109524      7.9236048311894471
   120   3      4.6373364616942538      4.0790650574366341      7.9069650436681975
   121   3      7.5144909189055751      9.1072875077130835       7.904469031621109
   122   3      1.7044323454964758      9.1071215663709033      7.8884488159377879
   123   3      7.5219150339375282      7.7043072778037152      5.9214291470793006
   124   3      1.6947064386759634      7.6994099935420985      5.9168590740853872
   125   3      8.9595113093440943      7.3103711081685736      11.676751002317504
   126   3      6.6287213532667311      2.9616681456949165      11.041484198931219
   127   3      2.5752977339519085      4.9579163664954793      10.131957903112434
   128   3      10.860569947239208      8.5634982098059549      11.682991878081289
   129   3       4.134229673107142     0.97717983658635332      3.3010724808649616
   130   3       8.740132197309876      3.0917580036970467      3.3010724808649616
   131   3      4.5875191696920838      1.6153379744706062      11.906472623183307
   132   3      2.7569557426236337      9.0786486674436784      10.650854690704406
   133   3      5.8267547982065553      5.3207783573863692      1.3166483637921624
   134   3      8.6970667166924152      5.2524029214711936      11.600452655065412
   135   3      5.8300459935171638      4.7731340357313297      5.9198074154281946
   136   3      10.426680426036702      4.3446609784551375      9.9690178927209203
   137   3      8.7336937095333944      6.9938047357466226      7.9205291921784795
   138   3      1.6945518262997477      2.3857284981765683      1.3166483637921624
   139   3      9.9583902999246643      7.7040465735020982      5.9164993051360621
   140   3      9.9609844713137417     0.97717983658635332      3.3010724808649616
   141   3      7.0476070722104192      6.0232975134561082      3.3010724808649616
   142   3      9.9602981328215243      9.1099638429338832      7.8931563687617716
   143   3      1.2131444524000441      4.0637872771934429      7.9047411587989647
   144   3      7.0429095674483122      4.0793012237918562      7.9430981837983117
   145   3      2.9177226153105806      9.8190540441682472      5.9150416950964164
   146   3       8.737224818126851      9.8205566405584328      5.9163259577757161
   147   3      4.6088019808428351      2.6582607796848605       5.917062297007412
   148   3      10.432956777026895      2.6542072903247838      5.9118367380406589
   149   3      4.6079292254030255      7.4318461750463234      1.3166483637921624
   150   3      1.6925251250994144     0.97717983658635321      3.3010724808649616
   151   3      10.820794164303244      1.7621553904289264      10.592114133155865
   152   3      8.8264751168757289     0.84015073319168265      11.732345594844249
   153   3      1.6248375200757321      6.4224491019546175       11.85124444438866
   154   3      6.8261083894217736      5.0044859073178918      11.261341393621345
   155   3     0.90837876416964547     0.99106954262921387      11.868797189937405
   156   3      3.4988653927732702      7.1988684146171797      11.221984468038873
   157   3      7.5213066245063471      2.3857284981765683      1.3166483637921624
   158   3      2.5554339435653985       1.084811292336108      10.231442294622745
   159   3      10.434684023609625      7.4318461750463234      1.3166483637921624
   160   3      5.8284750727230925      1.9652061209500424       7.920603887610512
   161   3   0.0027050635852276512      1.9620340872808284      7.9041017308144941
   162   3      1.2208522740038206      6.0232975134561082      3.3010724808649616
   163   3      7.0459325378073467       2.663332243792127      5.9253391233042185
   164   3      1.2190451838596383       2.661868707040278      5.9169401662621715
   165   3      4.1317180031398681      7.7084949909113272      5.9269209316586249
   166   3      4.6059025242026905      6.0232975134561082      3.3010724808649616
   167   3      7.1440902584756945      8.8631857480424205       11.77879418683195
   168   3      1.1441198897687397      3.6786679447886104      11.704466730307603
   169   3      8.8851413558934134      9.1622071144731372        10.2645644725498
   170   3      9.1512989829337474      3.0859939789821742      11.801421707986181
   171   3   0.0027387652372782736      4.7733047948931295      5.9145747149141261
   172   3      3.6171999142878546      2.9868221280895773      9.9866329449383446
   173   3      11.092879380475635       5.965119814074832      11.665644204963023
   174   3      4.6387209383486629      4.0587045561930113      11.916434117206492
   175   3        6.85596691742718     0.79367605198777114      10.605260820173962
   176   3       5.120964907756556      6.0351025824044688      11.533676982801582
   177   3     0.82330987404557698      8.1410946406576574      10.362642397416732
   178   3 -4.3599999999999992e-14      5.3207783573863692      1.3166483637921624
   179   3       8.740132197309876      0.2746606805166148      1.3166483637921624
   180   3      2.9133773991032776      0.2746606805166148      1.3166483637921624
   181   3      10.432657322409289      6.0232975134561082      3.3010724808649616
   182   3       7.519279923306013     0.97717983658635321      3.3010724808649616
   183   4  -0.0062737410366780688      3.3644225456960042      6.9148338949216646
   184   4      5.8108127549386994      3.3637635418747176      6.8923272023003044
   185   4      2.9133773991032776      1.6820392256232506      2.2987940834959804
   186   4 -4.3599999999999992e-14      6.7281569024930041      2.2987940834959804
   187   4      2.8952759133484607      8.4194558442657144      6.9114033017044232
   188   4      8.7467304443171479      8.4176275130863516      6.9217746105975495
   189   4      5.8267547982065553      6.7281569024930041      2.2987940834959804
   190   4       8.740132197309876      1.6820392256232506      2.2987940834959804
