(written by ASE)

190 atoms
4 atom types

0.0      11.653509596413199  xlo xhi
0.0        10.0922353537395  ylo yhi
0.0                      30  zlo zhi
                      0                       0                       0  xy xz yz

Atoms # atomic

     1   1     0.83712535940325561     0.46017795012230672      5.1817020403676572
     2   1      9.5727115796799822      5.5523445768793218       5.104704290951779
     3   1      10.782071375540896      3.4206817335889697      10.140168699653863
     4   1      3.7366542509582281      5.5318539526157613      5.1715622769510983
     5   1      8.6584825981166915      3.0738678570459208      12.287135140639103
     6   1        6.70164909021093     0.48795144147856734      5.2050128072323698
     7   1      3.8473033787493485      2.8418950558919205      10.438063297175203
     8   1       2.044366321570525      2.2168613585078973      8.1214732999813908
     9   1      5.2007321186011151      8.6377842985777757      11.166975139882691
    10   1      3.7546337913945762      4.5604180723228787                     0.5
    11   1      4.7924208396158905     0.57907034176481598      12.038849394695829
    12   1      6.6680111904978974      9.6065357491926271                     0.5
    13   1      2.9897478426810156      7.5581778410279545      9.6192053757261693
    14   1      3.1697223382808191      9.1522232087511171      11.268939190353157
    15   1     0.87615172206558412      3.9999129070430195       11.10231205279878
    16   1      5.7482792677797345      5.7490491376521877      8.1409937427562333
    17   1   -0.054810940426945141      5.6432121552010974      8.3634282151299821
    18   1      1.1161326744734192      5.8781345349497558      12.655713405244445
    19   1      8.7024117539784029     0.62146139259022326      8.4471255611727205
    20   1      8.9151788663991756     0.21068491497663766      11.280023346951912
    21   1      2.8046317728268439     0.73307402797308041      8.1235103255558982
    22   1      11.053818947441114      1.5147622320623337      11.401334471459883
    23   1      5.8337009151854717       2.823207493830497      10.694075151018319
    24   1      6.6656747630207986      2.8797277837324504      3.8043095294545042
    25   1     0.83891996481419984      2.8797277837324504      3.8043095294545042
    26   1      9.5790521621241194       7.925845460602198      3.8043095294545042
    27   1 -4.3599999999999992e-14      3.3640784512465056      2.4321633756321481
    28   1      2.9405305355454443       1.723445608852193       6.786878525522293
    29   1       2.902872631034263      4.0692355720138336      5.1750185019185535
    30   1       8.740132197309876      6.0175168859635022                     0.5
    31   1 -4.3599999999999992e-14     0.97139920909375399                     0.5
    32   1      5.8267547982065553     0.97139920909375399                     0.5
    33   1      5.0237127117202993     0.49737541369186589      5.2004248631365506
    34   1      6.9174473673470409      4.3431627426163786       10.14532182838261
    35   1      1.1315856974694931      2.2686389242105944      12.296168630879958
    36   1       8.740132197309876      9.3788974631443622      3.8043095294545042
    37   1     0.84125639229129867      9.6065357491926271                     0.5
    38   1      7.8995682725240863      5.5264062430812668      5.1635381771459272
    39   1      5.8267547982065553      3.3640784512465056      2.4321633756321481
    40   1      9.0699041138101233      8.5433589148624502      10.503438052796447
    41   1       8.740132197309876      8.4101961281162527      2.4321633756321481
    42   1      2.9133773991032776      8.4101961281162527      2.4321633756321481
    43   1      9.5813885896011737      4.5604180723228787                     0.5
    44   1      2.9133773991032776      9.3788974631443622      3.8043095294545042
    45   1      2.5308027630178849      5.7253555855369953      10.261613869499739
    46   1      7.9397935435966041      2.1410106784918024      8.4197298394001621
    47   1      11.087573417288393      8.6613897709385643      11.485285952967351
    48   1       5.038487802202674      7.2781297753340697      8.0907011963193245
    49   1      7.0309725166116106      9.4117206226059213      12.276092869605328
    50   1      10.743282543030041      7.0986907841085047      8.2370772666850876
    51   1      2.6534051398227052      1.1522731983722445      10.838301046048739
    52   1      2.0744574342890343       7.925845460602198      3.8043095294545042
    53   1      2.9133773991032785      5.0461176768697538       1.866758950346576
    54   1      5.8267547982065997                       0       1.866758950346576
    55   1  8.9999999999999983e-16                       0       1.866758950346576
    56   1      7.8988758050185357      4.5604180723228804                     0.5
    57   1      2.0721210068119365      4.5604180723228804                     0.5
    58   1      10.812253204121857      9.6065357491926289                     0.5
    59   1      2.9133773991032776      6.0175168859635022                     0.5
    60   1      10.819892853335483     0.45546048619601454      5.1791643088628767
    61   1      2.0575804191595468      5.5170822396294641      5.2221610603026196
    62   1      8.4192326303124432      5.3819163670659194      10.842476387485931
    63   1      8.7413157665344805      4.0832500449131333      5.1206830224789552
    64   1      8.7948390988817149      5.0334660533225213      6.5044764922107836
    65   1      2.9490429982857465      5.0075267716660692      6.5622997769939282
    66   1      5.8618006940827723   -0.028007379069118103      6.5636543960217697
    67   1   -0.016294256659797706   -0.055169072730793273      6.5453836711921562
    68   1      5.9161891080135725      6.7166617902323287      6.7930179906067947
    69   1      5.8868064500971711      7.0116088190181447      10.891557257005179
    70   1   -0.024197054526269777      6.5367527336599922      6.9330858518876441
    71   1      8.6693729504398629      1.5422612373761169      7.0518712362445424
    72   1      10.814589631598912      2.8797277837324491      3.8043095294545042
    73   1      7.1673075421747958     0.77569875370532715      10.858432467568141
    74   1 -4.3599999999999992e-14      4.3327797862746138      3.8043095294545042
    75   1      4.9854984059152576      9.6065357491926289                     0.5
    76   1      3.7522973639175206       7.925845460602198      3.8043095294545042
    77   1      8.7401321973098778      5.0461176768697538       1.866758950346576
    78   1      3.7450753530568783      2.1257391304205662      8.1955831318760364
    79   1      4.9236088120942947      5.5834837076579591      12.167262799924362
    80   1      9.6343716390285028      2.0247344221178607       8.319196108821437
    81   1      1.0044615614721506      8.8026041226049152      10.328818885961033
    82   1     0.76019485204648041      7.1115102710121354      8.2958079519637593
    83   1      8.2099865589753218      8.0060069191275236      12.220781985778261
    84   1      6.7210052700933627      7.1321222462316243      8.1902997914336844
    85   1  -0.0066732544795290163       9.085708527155381      5.1642948505265887
    86   1      5.8267547982065553      4.3327797862746138      3.8043095294545042
    87   1      5.8572683569109607      9.1290810118991992      5.1672450606723999
    88   1      7.9012122324956335       7.925845460602198      3.8043095294545042
    89   1      10.505604507115207      5.7723266074626469      11.707036761176166
    90   1      4.9878348333923119      2.8797277837324491      3.8043095294545042
    91   1      3.0132512245026528      4.7195516009403802      12.545604912631728
    92   2      2.9107946601895889      5.0344844980887506      5.5337949461594009
    93   2      8.7542400158642604      5.0496300195530734      5.4760839223389741
    94   2      5.8267547982065997                       0     0.84163042435634416
    95   2   -0.057286468821711622      6.5936293630616891      7.9606623215341905
    96   2      8.7351622723733353        1.58393309857909      8.0799458143379184
    97   2      8.7401321973098778      5.0461176768697538     0.84163042435634416
    98   2      2.9133773991032785      5.0461176768697538     0.84163042435634416
    99   2      5.8584957750650846  -0.0028341733526231704      5.5346217173708556
   100   2       8.740132197309876      8.4101961281162527      3.4593945362622507
   101   2      5.8554498573712142      6.7194973742776609      7.8182476581738936
   102   2      2.8840955352859958      1.7083086774167169      7.8138173715144825
   103   2      5.8267547982065553      3.3640784512465056      3.4593945362622507
   104   2 -4.3599999999999992e-14      3.3640784512465056      3.4593945362622507
   105   2   0.0032725923896556367   -0.039571288261388095      5.5163715859098099
   106   2  8.9999999999999983e-16                       0     0.84163042435634416
   107   2      2.9133773991032776      8.4101961281162527      3.4593945362622507
   108   3      10.306660105913219      3.9840808992930703       7.636738522943495
   109   3      2.9133773991032772      3.0917580036970467      3.3010724808649616
   110   3 -4.3599999999999992e-14      8.1378756805668004      3.3010724808649616
   111   3      5.8267547982065553      8.1378756805668004      3.3010724808649616
   112   3       4.132202971906807      2.3857284981765692      1.3166483637921624
   113   3      9.9589577701134058      2.3857284981765692      1.3166483637921624
   114   3      1.2188255728034858      7.4318461750463234      1.3166483637921624
   115   3      7.0455803710100851      7.4318461750463234      1.3166483637921624
   116   3      4.1640969110804873      9.1441647914507804      7.7674881337830222
   117   3      5.9442676928279523      7.8491786532749268      10.368172651497783
   118   3      4.5127910652773666      9.0888515459990362      11.748988010369745
   119   3      2.9223342778114314      7.0983231302507575      7.9052908381553184
   120   3      4.6314221140518086      4.1602214123392764      7.5930168624304288
   121   3      7.5736064042833471      9.1400323323001054      7.6947307063419066
   122   3      1.7279070440629245      9.2269462915232179       7.755929233195701
   123   3      7.5397662767316485      7.6987590836746902      5.7544407638934532
   124   3      1.7101236041761447      7.6805284620285805      5.8807476507753469
   125   3      8.7640024648475148      7.5363078580971603      11.567103955711529
   126   3       6.821101995847167      2.9876492377817101      10.824340318761767
   127   3      2.1148472724811054      4.9265328728840636       9.932155780542395
   128   3      10.986297156184468      9.2185674628637351      12.261301140262788
   129   3       4.134229673107142     0.97717983658635332      3.3010724808649616
   130   3       8.740132197309876      3.0917580036970467      3.3010724808649616
   131   3      4.6825519373919473      1.5180974600752835      12.186348627360067
   132   3      2.4543494235300765      9.6745993162502604      10.813773672614419
   133   3      5.8267547982065553      5.3207783573863692      1.3166483637921624
   134   3      9.1730118452404117      5.0079999307307279      11.332096163123884
   135   3      5.9589814920945816      4.7272278189822217      5.7169762982443721
   136   3      11.341866755185038      4.1882773775858313      9.9843459831817842
   137   3      8.7623651424315039       7.038966332262178      7.7488171089164135
   138   3      1.6945518262997477      2.3857284981765683      1.3166483637921624
   139   3      9.9635160416258408      7.6580700081994912      5.7135248745075611
   140   3      9.9609844713137417     0.97717983658635332      3.3010724808649616
   141   3      7.0476070722104192      6.0232975134561082      3.3010724808649616
   142   3      10.050544891069055      9.1158988193960884      7.6071622492265254
   143   3      1.1362076089896731      4.0133556107055837      7.6655907180934442
   144   3      7.0738796055582025      3.9898849178170042      7.7459023082319627
   145   3      2.9478157156657279      9.8174180644200462      5.7634196796964252
   146   3      8.7681000461540251      9.8225483623402781       5.709181610451143
   147   3      4.6393091581860384      2.6357310065920898      5.7221575511106364
   148   3      10.380534282882255       2.567820789358334      5.7091701266544987
   149   3      4.6079292254030255      7.4318461750463234      1.3166483637921624
   150   3      1.6925251250994144     0.97717983658635321      3.3010724808649616
   151   3      10.552194350618882       1.904545022051823      10.669482928595373
   152   3      8.3201563833453491     0.73595145891142877      11.869992729671196
   153   3      2.0116277357113974      5.8573972260948439      13.054741048911417
   154   3      7.1112658704380882      5.2887428108160197      9.9486658013453724
   155   3     0.89204522917050411      1.3241385781508124      12.455759819059102
   156   3      3.1436088282983659      7.1480985568684696      10.481640269435937
   157   3      7.5213066245063471      2.3857284981765683      1.3166483637921624
   158   3      2.5772332072256119      2.0690515156195088      10.531814376715907
   159   3      10.434684023609625      7.4318461750463234      1.3166483637921624
   160   3      5.7417767013276704      1.9651877550815637      7.7535716583306362
   161   3   -0.064404674357538022      1.9079058772416611      7.7286968768729691
   162   3      1.2208522740038206      6.0232975134561082      3.3010724808649616
   163   3      7.0812595275507375      2.5637103142324027      5.8030345614895911
   164   3      1.1311476422871591      2.6223411181910623      5.6731406039305492
   165   3       4.113692627066218      7.6693906717385607      5.8473134350668969
   166   3      4.6059025242026905      6.0232975134561082      3.3010724808649616
   167   3      7.0249426601618374      8.6535460667010291      12.876554698993228
   168   3       1.050633710175163      3.6546021462944998      12.002022117620836
   169   3      9.3971326602769008      9.3997444251709101      10.156838033992754
   170   3      9.2148013281300312      3.1164000598649979      13.058576346307381
   171   3   -0.061048936249381278      4.7483075901317475      5.7238165629889028
   172   3      4.6519490777424322      3.1872348036086602      10.010654949352787
   173   3      11.339617333622783      6.1977224094472456      12.011729361596792
   174   3      3.9074373597642178       4.421268890671989      12.235416306397395
   175   3      6.4643480273828979      0.2201892332082962      10.489029855333031
   176   3       5.731231222513868       6.138163694481201      12.122735874669745
   177   3     0.31211867834163398      8.1976011135214737      10.071663877230616
   178   3 -4.3599999999999992e-14      5.3207783573863692      1.3166483637921624
   179   3       8.740132197309876      0.2746606805166148      1.3166483637921624
   180   3      2.9133773991032776      0.2746606805166148      1.3166483637921624
   181   3      10.432657322409289      6.0232975134561082      3.3010724808649616
   182   3       7.519279923306013     0.97717983658635321      3.3010724808649616
   183   4   -0.076544484833796902      3.3063069592972281      6.7159960729570072
   184   4      5.8630405820934337      3.3376155557455092      6.7500788410551404
   185   4      2.9133773991032776      1.6820392256232506      2.2987940834959804
   186   4 -4.3599999999999992e-14      6.7281569024930041      2.2987940834959804
   187   4      2.9253057161362812      8.4585910595411953      6.8070216732461599
   188   4      8.7813965076520102      8.4190543397589632       6.724785670963275
   189   4      5.8267547982065553      6.7281569024930041      2.2987940834959804
   190   4       8.740132197309876      1.6820392256232506      2.2987940834959804
