(written by ASE)

190 atoms
4 atom types

0.0      11.653509596413199  xlo xhi
0.0        10.0922353537395  ylo yhi
0.0                      30  zlo zhi
                      0                       0                       0  xy xz yz

Atoms # atomic

     1   1     0.84096250695322183     0.48727801800214238      5.2220681230212174
     2   1      9.5833907354199965      5.5320455469794849      5.2199859938386375
     3   1      10.645015762319279      3.4754516484334208      10.345182188739345
     4   1      3.7534201336248527      5.5336869140172711      5.2202126840966887
     5   1      8.2196130624439139      2.9017342565386723      11.623018969952327
     6   1       6.669083577041695     0.48443256344056834      5.2187211661714894
     7   1      2.8319409236620841      2.9781022266958321       10.36466677635382
     8   1      2.1065944739139169       2.138700485687465      8.3595984681122442
     9   1      4.9721035683551271      9.0951812179903886      10.852689492718719
    10   1      3.7546337913945762      4.5604180723228787                     0.5
    11   1      5.0721241466056863     0.69915923169472471      11.743351941376172
    12   1      6.6680111904978974      9.6065357491926271                     0.5
    13   1      3.7854806002795285      7.5612289712080401       10.40579001620404
    14   1      2.9179506794924799      9.0578529559222574      11.558225161996862
    15   1     0.91797213957870938       3.804969629631759      10.821211018680936
    16   1      5.8010914189585829      5.7365278548989371      8.3020838991804151
    17   1 -0.00068261357171077507      5.7440999203085852      8.3956260257746465
    18   1     0.92317383337484726      5.8985146938819204      11.548156797298763
    19   1      8.7415561392898873     0.68895446137170702      8.4073665445741366
    20   1      8.8934659514534165     0.91460511425266489      10.908234419866455
    21   1      2.8726704351570271     0.73707437973849843      8.3684491473917184
    22   1      10.666757414457566      1.8598046579668082      11.434341731284421
    23   1      5.9197517843223775      2.8500716794881349      10.518631784008805
    24   1      6.6656747630207986      2.8797277837324504      3.8043095294545042
    25   1     0.83891996481419984      2.8797277837324504      3.8043095294545042
    26   1      9.5790521621241194       7.925845460602198      3.8043095294545042
    27   1 -4.3599999999999992e-14      3.3640784512465056      2.4321633756321481
    28   1       2.912763411083493      1.6913708895848645      6.9199090875884313
    29   1      2.9106945469199546      4.0730546011874997      5.2224214270889293
    30   1       8.740132197309876      6.0175168859635022                     0.5
    31   1 -4.3599999999999992e-14     0.97139920909375399                     0.5
    32   1      5.8267547982065553     0.97139920909375399                     0.5
    33   1      4.9833596129470719     0.48518943406943726      5.2202492306507526
    34   1      6.7683745147690901      4.6503280295619476      10.330120088566145
    35   1      1.1925913771699201      1.8058892712365953        11.7008421160156
    36   1       8.740132197309876      9.3788974631443622      3.8043095294545042
    37   1     0.84125639229129867      9.6065357491926271                     0.5
    38   1      7.8989559154227384      5.5334579062358431      5.2183158367389311
    39   1      5.8267547982065553      3.3640784512465056      2.4321633756321481
    40   1      8.9118773395823592      9.1381025598149304      11.117440809095001
    41   1       8.740132197309876      8.4101961281162527      2.4321633756321481
    42   1      2.9133773991032776      8.4101961281162527      2.4321633756321481
    43   1      9.5813885896011737      4.5604180723228787                     0.5
    44   1      2.9133773991032776      9.3788974631443622      3.8043095294545042
    45   1      2.9420382589502116      5.8485644068185803      10.494291796691273
    46   1      7.9006032828104837      2.1705889138606125      8.3951822608171813
    47   1      10.799999911105905      8.4347573464827299      10.863184202358143
    48   1      5.0092362448802294      7.2103714172149243      8.3279695356025911
    49   1      7.0383342027829228      9.1099141178092182      10.991005719628932
    50   1      10.815927945911742      7.2345011215067245      8.3727606139063777
    51   1      3.4603287220959351      1.0747759709023532      10.477874408835048
    52   1      2.0744574342890343       7.925845460602198      3.8043095294545042
    53   1      2.9133773991032785      5.0461176768697538       1.866758950346576
    54   1      5.8267547982065997                       0       1.866758950346576
    55   1  8.9999999999999983e-16                       0       1.866758950346576
    56   1      7.8988758050185357      4.5604180723228804                     0.5
    57   1      2.0721210068119365      4.5604180723228804                     0.5
    58   1      10.812253204121857      9.6065357491926289                     0.5
    59   1      2.9133773991032776      6.0175168859635022                     0.5
    60   1      10.813774598070014     0.48627322782614907      5.2205587409894711
    61   1      2.0707148855242292      5.5319493141301335      5.2215072175379804
    62   1      8.6766271174200753      5.4647296287344824      10.758313975272436
    63   1      8.7439367333085052      4.0732035893505101      5.2195185282209797
    64   1      8.7478525787592218      5.0455878885297691      6.5856620875006335
    65   1       2.909155441863656      5.0456411203147571      6.5905739987137233
    66   1      5.8276670486196638 -0.00081634962345045062      6.5890837426461184
    67   1 -0.00026299643751652208     0.00013524336365979      6.5921619801972389
    68   1      5.8238084447431211      6.7050562080585117      6.9381338473225194
    69   1      6.5489501520604305      6.7658057140661567      10.537708522382657
    70   1 -0.00052060446037301784      6.7190294367635142       7.042123634459613
    71   1      8.7450955770182652      1.6865620744039158      7.0498164979059217
    72   1      10.814589631598912      2.8797277837324491      3.8043095294545042
    73   1      7.0304533360930588      1.0637918346922899      11.382938910854918
    74   1 -4.3599999999999992e-14      4.3327797862746138      3.8043095294545042
    75   1      4.9854984059152576      9.6065357491926289                     0.5
    76   1      3.7522973639175206       7.925845460602198      3.8043095294545042
    77   1      8.7401321973098778      5.0461176768697538       1.866758950346576
    78   1      3.7117624071566024       2.167717937093947      8.3733576684817699
    79   1      4.9536853350542778      5.6724604408719159      10.792651355839411
    80   1      9.5947248529640543      2.1623322594975249      8.4011930985178971
    81   1     0.86367877169397989      8.3106534956804783      11.142283503235907
    82   1     0.83748151965885764      7.2139411461730747      8.4298455123392806
    83   1      7.9110992815133798      7.3111948216888996      11.650779263875618
    84   1      6.6390918884299364      7.2059236711141237       8.336065248648886
    85   1  0.00035323704036807364      9.1214869175990572      5.2198182866044309
    86   1      5.8267547982065553      4.3327797862746138      3.8043095294545042
    87   1        5.82691034979125      9.1215574425268855      5.2196509036919858
    88   1      7.9012122324956335       7.925845460602198      3.8043095294545042
    89   1      10.715489249558821      6.1465671426849697      10.952206950373252
    90   1      4.9878348333923119      2.8797277837324491      3.8043095294545042
    91   1      3.7808559055146911      4.4747599081209266      11.692643372369787
    92   2      2.9134999040212182      5.0456561264536637      5.5610888505970042
    93   2      8.7403178626127609      5.0460458929457666      5.5573577646128474
    94   2      5.8267547982065997                       0     0.84163042435634416
    95   2    0.003546197269202626      6.7234345480863436      8.0719277770089217
    96   2      8.7448346438781659      1.6727529924479734      8.0826683065779577
    97   2      8.7401321973098778      5.0461176768697538     0.84163042435634416
    98   2      2.9133773991032785      5.0461176768697538     0.84163042435634416
    99   2      5.8262272803870676   0.0011491531075552201      5.5600343311011216
   100   2       8.740132197309876      8.4101961281162527      3.4593945362622507
   101   2      5.8204118174120127      6.7008569243121965      7.9495591357989577
   102   2      2.9166272949422849      1.6697968659786222      7.9428076547194175
   103   2      5.8267547982065553      3.3640784512465056      3.4593945362622507
   104   2 -4.3599999999999992e-14      3.3640784512465056      3.4593945362622507
   105   2  0.00083585339065455613  4.5586253158574108e-05      5.5621859048930027
   106   2  8.9999999999999983e-16                       0     0.84163042435634416
   107   2      2.9133773991032776      8.4101961281162527      3.4593945362622507
   108   3      10.416874163190229      4.0536079122466093        7.73057919680154
   109   3      2.9133773991032772      3.0917580036970467      3.3010724808649616
   110   3 -4.3599999999999992e-14      8.1378756805668004      3.3010724808649616
   111   3      5.8267547982065553      8.1378756805668004      3.3010724808649616
   112   3       4.132202971906807      2.3857284981765692      1.3166483637921624
   113   3      9.9589577701134058      2.3857284981765692      1.3166483637921624
   114   3      1.2188255728034858      7.4318461750463234      1.3166483637921624
   115   3      7.0455803710100851      7.4318461750463234      1.3166483637921624
   116   3      4.1480043384148892      9.0874955817309271      7.9304901671681582
   117   3      6.2527547757760313      7.4912940135385151      9.9664756156600287
   118   3      4.8054749178850447      9.4749295519336947       11.68254544277154
   119   3      2.9404966870080749      7.0123322006471946       7.925940102625546
   120   3      4.6620476743886501      4.0938653340191937      7.8903438373033374
   121   3      7.5136085424529906      9.1038260740436368      7.8892305514069916
   122   3      1.7028497197754495       9.108342462670171      7.8712062753250089
   123   3      7.5254732416570338       7.703128351221654      5.9194764202546688
   124   3      1.6929383316342785      7.6903775954436524      5.9110827196327893
   125   3      8.8473653214362624      7.4247095157335847      11.758992178053106
   126   3      6.7735524205629369      2.9317507544096473      10.921773792080874
   127   3      2.6658502633722336      5.0664932879004558      9.9766316347833612
   128   3      10.905700265000824      8.7344336126597319      11.771528260258947
   129   3       4.134229673107142     0.97717983658635332      3.3010724808649616
   130   3       8.740132197309876      3.0917580036970467      3.3010724808649616
   131   3      4.5546310582211431      1.4497466156090406      12.036238478541135
   132   3      2.7906445968866276      9.0924932418954132      10.623496223996359
   133   3      5.8267547982065553      5.3207783573863692      1.3166483637921624
   134   3      8.8484137571212145      5.2542409966732579      11.654431759044066
   135   3      5.8381871453992842      4.7757463141875638      5.9110439581505148
   136   3       10.58162669833327      4.2648989174619887      9.8250499607466644
   137   3      8.7322319100432004      6.9970528543345312      7.9231477690369614
   138   3      1.6945518262997477      2.3857284981765683      1.3166483637921624
   139   3      9.9565356417437698      7.6991258351025271      5.9128223781243525
   140   3      9.9609844713137417     0.97717983658635332      3.3010724808649616
   141   3      7.0476070722104192      6.0232975134561082      3.3010724808649616
   142   3      9.9686352006565535      9.1065836591384546      7.8728059477908836
   143   3      1.2011670510758927      4.0576723648271429       7.896034447121635
   144   3      7.0335896409876453      4.0837825900591067      7.9632098272149046
   145   3      2.9255743340383953      9.8208880896163446      5.9076461611662392
   146   3      8.7348741041165034      9.8238708690626861      5.9108759567192086
   147   3      4.6037539273485848      2.6545161558324568      5.9081467014684597
   148   3      10.430697771136046      2.6395135620449444      5.8906899539573052
   149   3      4.6079292254030255      7.4318461750463234      1.3166483637921624
   150   3      1.6925251250994144     0.97717983658635321      3.3010724808649616
   151   3      10.860850920082489      1.9152960368378371      10.495615464762592
   152   3      8.7434227626126528     0.76339321465039933      11.834725786868985
   153   3      1.6279430608435077      6.3290198317750406      12.078909439418556
   154   3      6.7561496808198145      5.1384601678451851      11.120880242496511
   155   3     0.88748770028842983      0.9881318763865915      12.091319319151108
   156   3      3.3593037350220136      7.1005578917660346      11.106611289614559
   157   3      7.5213066245063471      2.3857284981765683      1.3166483637921624
   158   3      2.5589023488771323      1.1230731649534078      10.182197966382393
   159   3      10.434684023609625      7.4318461750463234      1.3166483637921624
   160   3      5.8280357228408448      1.9799083291491271      7.9208621496428453
   161   3   0.0054434805394062025      1.9645095357390461      7.8969851130063891
   162   3      1.2208522740038206      6.0232975134561082      3.3010724808649616
   163   3      7.0475035908135872      2.6666038286577352      5.9301660646899634
   164   3      1.2209140112861607      2.6600898948368421      5.9070648492090001
   165   3      4.1276494402147996      7.7105227403864296      5.9277353291244532
   166   3      4.6059025242026905      6.0232975134561082      3.3010724808649616
   167   3       7.266026537159223      8.8946676223393819      11.890111306458051
   168   3      1.0753161409576499      3.5168632021567037      11.713681987999633
   169   3       8.910217303997813      9.2114704542090742       10.14752251670008
   170   3      9.1108349677532132      3.0160561966767032      11.944574025409851
   171   3    0.012229696625701879       4.779914530285799      5.8976237641195643
   172   3      3.6125770147293048      3.0593137175804035      9.8356139879307776
   173   3      11.270413020354212      5.9863651433479577      11.667245537610839
   174   3      4.4586939944810924      3.9701118961373685      12.109836243210445
   175   3      6.8042290720841523     0.65485922257011853      10.537073488810906
   176   3      5.0862572130614101      6.1671800405763095      11.597085844943168
   177   3     0.72036149033045183      8.1602747950679504      10.201348894842551
   178   3 -4.3599999999999992e-14      5.3207783573863692      1.3166483637921624
   179   3       8.740132197309876      0.2746606805166148      1.3166483637921624
   180   3      2.9133773991032776      0.2746606805166148      1.3166483637921624
   181   3      10.432657322409289      6.0232975134561082      3.3010724808649616
   182   3       7.519279923306013     0.97717983658635321      3.3010724808649616
   183   4   0.0018780200199884892       3.359001107436006      6.9012689769426245
   184   4      5.8191367740043791       3.367581954322179       6.914759153301735
   185   4      2.9133773991032776      1.6820392256232506      2.2987940834959804
   186   4 -4.3599999999999992e-14      6.7281569024930041      2.2987940834959804
   187   4      2.9125790822986386      8.4095248589677905      6.9267824531193449
   188   4      8.7385289054177449      8.4098368419906961      6.9324430397719281
   189   4      5.8267547982065553      6.7281569024930041      2.2987940834959804
   190   4       8.740132197309876      1.6820392256232506      2.2987940834959804
