(written by ASE)

190 atoms
4 atom types

0.0      11.653509596413199  xlo xhi
0.0        10.0922353537395  ylo yhi
0.0                      30  zlo zhi
                      0                       0                       0  xy xz yz

Atoms # atomic

     1   1     0.83920535506661109     0.46217561760710296      5.1939700134212998
     2   1      9.5762253410739664      5.5518510371372214      5.1250168810849397
     3   1      10.753836265083121      3.4781840505817407      10.149905192514424
     4   1      3.7407821106644383      5.5332490071055451      5.1880258651022615
     5   1      8.5726859593172104      3.0873301315034127      12.191084569511398
     6   1      6.6961545605624506     0.48609412072191754      5.2136676620512077
     7   1      3.7256699424135067      2.8879670502070298      10.390933490279929
     8   1      2.0225022574523535      2.1838910920316783      8.1104836859158524
     9   1      5.2227675419751414      8.7533452018878446      11.184297324154914
    10   1      3.7546337913945762      4.5604180723228787                     0.5
    11   1      4.8190273168835347     0.50189599857731504      12.052157109784213
    12   1      6.6680111904978974      9.6065357491926271                     0.5
    13   1      3.0172052659302384      7.6090890776075524      9.7758300728814636
    14   1      3.0791175118487617      9.2058991076058128      11.271250417635491
    15   1     0.85070033350665009      3.9841672744913548      11.016118526103758
    16   1      5.7464760532439696      5.7379149344730846      8.1286071246648817
    17   1   -0.052365726453403302      5.6518209723711132      8.3509732207009595
    18   1      1.0971534883229148      5.8988009027245516      12.584710576135237
    19   1      8.7173350898784978     0.63135382219292591      8.4407015877691354
    20   1      9.0149305597380387     0.25896534387659842      11.315779870491497
    21   1       2.810902442298068     0.71281209998008821       8.128049533213014
    22   1       10.97530412354436      1.5390912132289383      11.423240127143417
    23   1      5.8263270392914528      2.7803524626736378      10.754788252239427
    24   1      6.6656747630207986      2.8797277837324504      3.8043095294545042
    25   1     0.83891996481419984      2.8797277837324504      3.8043095294545042
    26   1      9.5790521621241194       7.925845460602198      3.8043095294545042
    27   1 -4.3599999999999992e-14      3.3640784512465056      2.4321633756321481
    28   1      2.9344094922108912      1.7071956860211852      6.7742427498877476
    29   1       2.907250523478345      4.0691633996762668      5.1980406648468342
    30   1       8.740132197309876      6.0175168859635022                     0.5
    31   1 -4.3599999999999992e-14     0.97139920909375399                     0.5
    32   1      5.8267547982065553     0.97139920909375399                     0.5
    33   1       5.017169899202516     0.49602817794554888      5.2096283247473121
    34   1      6.8932444738776226      4.3625904896042602      10.107264988454425
    35   1      1.1945967361386844      2.1064416854814287      12.197926139298781
    36   1       8.740132197309876      9.3788974631443622      3.8043095294545042
    37   1     0.84125639229129867      9.6065357491926271                     0.5
    38   1      7.8986071488268124      5.5322708643429781      5.1719214220769532
    39   1      5.8267547982065553      3.3640784512465056      2.4321633756321481
    40   1      9.0343168650331211      8.5481313842790261      10.562451016445021
    41   1       8.740132197309876      8.4101961281162527      2.4321633756321481
    42   1      2.9133773991032776      8.4101961281162527      2.4321633756321481
    43   1      9.5813885896011737      4.5604180723228787                     0.5
    44   1      2.9133773991032776      9.3788974631443622      3.8043095294545042
    45   1      2.5030670541005096      5.7737454063877198      10.234256794100943
    46   1      7.9329300155602818      2.1412161776546479      8.4103295754130833
    47   1      10.978506974755367       8.673402937214103      11.423765475691738
    48   1      5.0088913887708832      7.2533251153632836       8.084155690854308
    49   1      6.9712680658667718      9.3182090287807338      12.138913527631791
    50   1      10.768135006905782      7.1177281133702799      8.2473632965692243
    51   1      2.7639572801117578      1.1448011940443239      10.842741733404242
    52   1      2.0744574342890343       7.925845460602198      3.8043095294545042
    53   1      2.9133773991032785      5.0461176768697538       1.866758950346576
    54   1      5.8267547982065997                       0       1.866758950346576
    55   1  8.9999999999999983e-16                       0       1.866758950346576
    56   1      7.8988758050185357      4.5604180723228804                     0.5
    57   1      2.0721210068119365      4.5604180723228804                     0.5
    58   1      10.812253204121857      9.6065357491926289                     0.5
    59   1      2.9133773991032776      6.0175168859635022                     0.5
    60   1      10.819375705489472     0.45879364270326745      5.1970137603366409
    61   1      2.0613074104106306      5.5204154597557622      5.2251221506602175
    62   1      8.3297378211168329        5.40633090277632      10.896365734603654
    63   1      8.7414997329248454        4.08738570745862      5.1383799022427672
    64   1      8.7893507655050769      5.0386316123283619      6.5151727374278225
    65   1      2.9416159761683249      5.0193683333140742      6.5750244681258554
    66   1      5.8582932556842655   -0.023621176195280452      6.5735680113600239
    67   1   -0.011215167491181129   -0.048450817972482428      6.5618869189702718
    68   1      5.8882938240564355      6.7061357477981014       6.784858993709876
    69   1      6.0490036295776033      7.0681087774534355      10.825852997892452
    70   1   -0.015252317298519136       6.562952355344307       6.931217111161776
    71   1      8.6860269040581208      1.5664572450088385      7.0445060422066561
    72   1      10.814589631598912      2.8797277837324491      3.8043095294545042
    73   1      7.1369803867231241     0.80657062082206243       10.82167517452368
    74   1 -4.3599999999999992e-14      4.3327797862746138      3.8043095294545042
    75   1      4.9854984059152576      9.6065357491926289                     0.5
    76   1      3.7522973639175206       7.925845460602198      3.8043095294545042
    77   1      8.7401321973098778      5.0461176768697538       1.866758950346576
    78   1       3.737395270541318      2.1342310046883575      8.2016018926520005
    79   1      4.9461472561049025      5.5419279547438114      12.114280104268845
    80   1      9.6293691965936503      2.0497754933110506      8.3357104719478503
    81   1       1.009209996105346      8.7317135465681375      10.482578199967651
    82   1      0.7788254720220722      7.1110700299935372      8.3042445917361114
    83   1      8.1886634743800055      8.0004285570820333      12.253242161273606
    84   1      6.6974661978068797      7.1445098702271217      8.1805219103269327
    85   1  -0.0069228685931618031      9.0899601418568832      5.1819053986366717
    86   1      5.8267547982065553      4.3327797862746138      3.8043095294545042
    87   1      5.8510528319784241      9.1270923052985289      5.1826876190652289
    88   1      7.9012122324956335       7.925845460602198      3.8043095294545042
    89   1      10.607896259077922      5.7472934979909684      11.745407518993543
    90   1      4.9878348333923119      2.8797277837324491      3.8043095294545042
    91   1      3.0529735638867019      4.5476005914456605       12.38714622511214
    92   2      2.9119362824054535      5.0383777209793026      5.5457588939006932
    93   2      8.7519212345428041       5.054719142264422       5.487536999944667
    94   2      5.8267547982065997                       0     0.84163042435634416
    95   2   -0.042410893663326316       6.605217339024068      7.9590297631240725
    96   2       8.741001884092956      1.5974705617531448      8.0752346617768858
    97   2      8.7401321973098778      5.0461176768697538     0.84163042435634416
    98   2      2.9133773991032785      5.0461176768697538     0.84163042435634416
    99   2      5.8525696808734713  -0.0021987353374911373       5.544302270945793
   100   2       8.740132197309876      8.4101961281162527      3.4593945362622507
   101   2      5.8386144929636687      6.7122372337581346      7.8107623797566061
   102   2       2.882292415716079      1.6938171932073831      7.8093085672244404
   103   2      5.8267547982065553      3.3640784512465056      3.4593945362622507
   104   2 -4.3599999999999992e-14      3.3640784512465056      3.4593945362622507
   105   2    0.004686784840010381   -0.035130434662684014      5.5322662187531622
   106   2  8.9999999999999983e-16                       0     0.84163042435634416
   107   2      2.9133773991032776      8.4101961281162527      3.4593945362622507
   108   3      10.321457368214409      3.9862452288941812      7.6231287274620936
   109   3      2.9133773991032772      3.0917580036970467      3.3010724808649616
   110   3 -4.3599999999999992e-14      8.1378756805668004      3.3010724808649616
   111   3      5.8267547982065553      8.1378756805668004      3.3010724808649616
   112   3       4.132202971906807      2.3857284981765692      1.3166483637921624
   113   3      9.9589577701134058      2.3857284981765692      1.3166483637921624
   114   3      1.2188255728034858      7.4318461750463234      1.3166483637921624
   115   3      7.0455803710100851      7.4318461750463234      1.3166483637921624
   116   3      4.1650960775606691      9.1360861892315217      7.7771368110056587
   117   3       6.108327091966391      7.8874767262382619      10.289218157029904
   118   3      4.5445943299388434      9.1244013146950351      11.788973320093044
   119   3      2.9354159339558628       7.076431105808429      7.8931625020414833
   120   3      4.6333544344546489      4.1650366336388078      7.5962756459546377
   121   3      7.5759119419534162      9.1474771135673674      7.6936181024154138
   122   3      1.7407950073984981      9.1992530365432046      7.7512621545099822
   123   3      7.5318979787917355      7.6963444408578843      5.7739986919609887
   124   3      1.7123370241703719      7.6803824773714524       5.859310995756446
   125   3      8.7760183724620138      7.5630262169959694      11.535611269248369
   126   3       6.799950350137145      2.9003401110675626      10.817545358257721
   127   3      2.1496788884089582      4.9255733605410583      9.9268212091404759
   128   3      11.081643198974916      9.2047622780540834      12.210047198814859
   129   3       4.134229673107142     0.97717983658635332      3.3010724808649616
   130   3       8.740132197309876      3.0917580036970467      3.3010724808649616
   131   3      4.7326236655069076      1.4654467656271064      12.137210942646099
   132   3      2.3942414331971662      9.6047936899176101      10.684818214177744
   133   3      5.8267547982065553      5.3207783573863692      1.3166483637921624
   134   3      9.1330383736931235      5.0556885575199972      11.321802898503096
   135   3      5.9821906281629076       4.739652368872366      5.7254313044601188
   136   3       11.28559912766382      4.2538520201508829      9.9599145925966379
   137   3      8.7613323635025235       7.038346497833504      7.7597984672909455
   138   3      1.6945518262997477      2.3857284981765683      1.3166483637921624
   139   3      9.9625506831258406      7.6539091021263124      5.7224601832038893
   140   3      9.9609844713137417     0.97717983658635332      3.3010724808649616
   141   3      7.0476070722104192      6.0232975134561082      3.3010724808649616
   142   3      10.034941834106943      9.1218166823165934       7.616191490941346
   143   3      1.1234228617833015       4.040027629230079      7.6797722765558829
   144   3      7.0659111585967898      4.0254026144274073      7.7783993518470371
   145   3      2.9535567135584562      9.8213953638630453      5.7679876827841978
   146   3      8.7644385812314489      9.8150117775511845      5.7000639163846323
   147   3      4.6641765737172554      2.6488765995814658      5.7266494133346528
   148   3      10.393427799292047      2.5746967569818624      5.6766998355178986
   149   3      4.6079292254030255      7.4318461750463234      1.3166483637921624
   150   3      1.6925251250994144     0.97717983658635321      3.3010724808649616
   151   3      10.531870424098694      1.8157523213001583      10.608113576846367
   152   3      8.3360602355531395     0.72275981350844931      11.865973817635137
   153   3      1.9734512163196518      5.8743681970698631      12.989053340055262
   154   3      7.0929443100550564      5.3105175268064908      9.9754295534764399
   155   3     0.87923815019395368      1.2494246771376789      12.524370419887648
   156   3      3.1566598715627237      7.1330490667728359      10.603908717646894
   157   3      7.5213066245063471      2.3857284981765683      1.3166483637921624
   158   3      2.5020575982865862      2.0254757606037095      10.536580590425617
   159   3      10.434684023609625      7.4318461750463234      1.3166483637921624
   160   3      5.7435276722955688       1.996290906234544      7.7821726244522136
   161   3   -0.082571235424138786      1.9259691472520652      7.7245516774104885
   162   3      1.2208522740038206      6.0232975134561082      3.3010724808649616
   163   3      7.1141078199311734      2.5689128601636493      5.8448403205773074
   164   3      1.1717089155983227      2.6175871936199053      5.6991355382906228
   165   3      4.1227990223025861       7.677910721851287      5.8449393929027735
   166   3      4.6059025242026905      6.0232975134561082      3.3010724808649616
   167   3      7.0570047526503599      8.6140919579753561      12.806404674611192
   168   3      1.0098162761023317      3.6359470604269659      11.907761722043784
   169   3      9.3573900678888489      9.3954362439832906      10.139756923065608
   170   3      9.2154671814447191      3.0542277297868559      12.893656108065272
   171   3   -0.054816036506690174      4.7552101197337056      5.7040942698818569
   172   3       4.574964415927556      3.2067494399716834      10.025216596070958
   173   3      11.420596148966085      6.2319464697556857      11.872682459818966
   174   3      4.0314016039061888      4.4552967493017537      12.224454567531776
   175   3      6.5028006619532324     0.18000870515781231      10.449714823700466
   176   3      5.6776099041773858      6.2134853741789486      11.995016986767039
   177   3     0.35362582614380567      8.1960405229735489      10.024612942500642
   178   3 -4.3599999999999992e-14      5.3207783573863692      1.3166483637921624
   179   3       8.740132197309876      0.2746606805166148      1.3166483637921624
   180   3      2.9133773991032776      0.2746606805166148      1.3166483637921624
   181   3      10.432657322409289      6.0232975134561082      3.3010724808649616
   182   3       7.519279923306013     0.97717983658635321      3.3010724808649616
   183   4   -0.085740803441744673      3.3299775121336936      6.7134903936106562
   184   4      5.8621981484929115      3.3479297399858203      6.7586234991662026
   185   4      2.9133773991032776      1.6820392256232506      2.2987940834959804
   186   4 -4.3599999999999992e-14      6.7281569024930041      2.2987940834959804
   187   4      2.9193543224889305      8.4411399709773605      6.7989687425706524
   188   4      8.7783885177172927      8.4232974289647817      6.7359506689249269
   189   4      5.8267547982065553      6.7281569024930041      2.2987940834959804
   190   4       8.740132197309876      1.6820392256232506      2.2987940834959804
