(written by ASE)

190 atoms
4 atom types

0.0      11.653509596413199  xlo xhi
0.0        10.0922353537395  ylo yhi
0.0                      30  zlo zhi
                      0                       0                       0  xy xz yz

Atoms # atomic

     1   1     0.84046904690033153     0.46179543395146022        5.20029424062019
     2   1      9.5813145067892229       5.547661341171497      5.1390326754987932
     3   1       10.73376602135599      3.4974228309085738      10.163776751413909
     4   1      3.7427930691283686      5.5318136526036827      5.1964674342306258
     5   1      8.5296872563986188      3.0922035963483854       12.13152910767637
     6   1      6.6922962263020134     0.48544062246812031      5.2173074676192366
     7   1       3.652067651906596      2.9104887438582772      10.365798962559461
     8   1      2.0127093268090697      2.1749554980649477      8.0962929915523159
     9   1      5.2398378725889758      8.8112190079839756      11.146317994140816
    10   1      3.7546337913945762      4.5604180723228787                     0.5
    11   1       4.829702831019163     0.50842905376298608      12.046084016827686
    12   1      6.6680111904978974      9.6065357491926271                     0.5
    13   1      3.0645671302898072      7.6241970351765564      9.8519620696566044
    14   1      3.0279320270113659      9.2449142677640861      11.279585206404882
    15   1     0.84511720909763455      3.9691743547710052      10.960333562003582
    16   1      5.7506978288666817      5.7311103406773833      8.1171358579565638
    17   1   -0.047366634183488049      5.6593405565475594      8.3533188494459427
    18   1      1.0785494767696757      5.9183155344143783       12.51348720682889
    19   1      8.7241043034614503     0.64217331314769854      8.4350044359231475
    20   1      9.0604648513624308     0.29896335893187159      11.312948675626444
    21   1      2.8220045816178576     0.70155890913718699      8.1137545694104105
    22   1      10.934677023015166      1.5613870653728754      11.432247252304395
    23   1      5.8131695274417909      2.7651706302792043      10.773987879093465
    24   1      6.6656747630207986      2.8797277837324504      3.8043095294545042
    25   1     0.83891996481419984      2.8797277837324504      3.8043095294545042
    26   1      9.5790521621241194       7.925845460602198      3.8043095294545042
    27   1 -4.3599999999999992e-14      3.3640784512465056      2.4321633756321481
    28   1      2.9301627141509008      1.6959050110260572      6.8082889080493398
    29   1      2.9110777661523111      4.0704121144057028      5.2079716721718681
    30   1       8.740132197309876      6.0175168859635022                     0.5
    31   1 -4.3599999999999992e-14     0.97139920909375399                     0.5
    32   1      5.8267547982065553     0.97139920909375399                     0.5
    33   1      5.0136287304435179     0.49556175454952278      5.2140173918567374
    34   1      6.8802180191883293      4.3687566713820436       10.10168384096618
    35   1      1.2161935941725606      2.0163177415612248       12.13700122287983
    36   1       8.740132197309876      9.3788974631443622      3.8043095294545042
    37   1     0.84125639229129867      9.6065357491926271                     0.5
    38   1      7.8922774694238074      5.5372924863173569      5.1772112467353271
    39   1      5.8267547982065553      3.3640784512465056      2.4321633756321481
    40   1      9.0075606654786284      8.5662996010469676      10.612691479585065
    41   1       8.740132197309876      8.4101961281162527      2.4321633756321481
    42   1      2.9133773991032776      8.4101961281162527      2.4321633756321481
    43   1      9.5813885896011737      4.5604180723228787                     0.5
    44   1      2.9133773991032776      9.3788974631443622      3.8043095294545042
    45   1      2.4962681903008166      5.7853682503510511       10.22621643327607
    46   1      7.9289922343592067       2.141425578393263      8.4059503906645077
    47   1      10.929286032475606      8.6758812670353951      11.385536031693746
    48   1      4.9867703014569553      7.2419812995843564      8.0747485592842931
    49   1      6.9519539387478106      9.2765913176782924       12.04645269201272
    50   1      10.777376442614994      7.1307676173979351      8.2603176990710008
    51   1      2.8391898541350029       1.130657876248337      10.843554086215773
    52   1      2.0744574342890343       7.925845460602198      3.8043095294545042
    53   1      2.9133773991032785      5.0461176768697538       1.866758950346576
    54   1      5.8267547982065997                       0       1.866758950346576
    55   1  8.9999999999999983e-16                       0       1.866758950346576
    56   1      7.8988758050185357      4.5604180723228804                     0.5
    57   1      2.0721210068119365      4.5604180723228804                     0.5
    58   1      10.812253204121857      9.6065357491926289                     0.5
    59   1      2.9133773991032776      6.0175168859635022                     0.5
    60   1      10.817405165680709     0.46169142545296005      5.2051531918760228
    61   1      2.0616459770389479      5.5226085028239469      5.2265951968794484
    62   1      8.3095716864124842      5.4146920564436991      10.912926098764778
    63   1       8.745680416639674      4.0875276110476806      5.1508639543436878
    64   1      8.7864543263858419       5.039948626795586      6.5209442604000252
    65   1      2.9372855240774496      5.0254759222303438      6.5804966694364921
    66   1      5.8551346560441484   -0.020655624767809203      6.5781768944474956
    67   1  -0.0083727036677031675   -0.042894564356406206      6.5692538260221749
    68   1      5.8690819025103949      6.6982447996436028        6.79722300005999
    69   1      6.1293638745644907      7.0567483904961561      10.792979549861329
    70   1  -0.0050389856345092578      6.5817920516588693      6.9322346296460315
    71   1      8.6968480469052665      1.5799137861665149      7.0440419382102704
    72   1      10.814589631598912      2.8797277837324491      3.8043095294545042
    73   1      7.1237153251079581     0.82880991106329316      10.826639667756636
    74   1 -4.3599999999999992e-14      4.3327797862746138      3.8043095294545042
    75   1      4.9854984059152576      9.6065357491926289                     0.5
    76   1      3.7522973639175206       7.925845460602198      3.8043095294545042
    77   1      8.7401321973098778      5.0461176768697538       1.866758950346576
    78   1      3.7352734412265463      2.1377574526313285      8.1902473027115636
    79   1      4.9615068728248461      5.5198304068988726       12.06082132186758
    80   1      9.6250248868711736      2.0612039215676323      8.3440564820619727
    81   1      1.0018705706183282      8.6895670648917367      10.572659878950747
    82   1     0.78622705278973359      7.1114827944406631      8.3092245573921986
    83   1      8.1913268933326009        7.96619231815259      12.231161688930328
    84   1      6.6977763999989168      7.1476320489394691      8.1713294110279389
    85   1  -0.0058700297562752643      9.0944863150461011      5.1900653373818217
    86   1      5.8267547982065553      4.3327797862746138      3.8043095294545042
    87   1      5.8478555683230962      9.1252722819529115      5.1899541209297917
    88   1      7.9012122324956335       7.925845460602198      3.8043095294545042
    89   1      10.609428443714329      5.7372707233598721       11.71076751522347
    90   1      4.9878348333923119      2.8797277837324491      3.8043095294545042
    91   1      3.1282182947911643      4.4661474859297323      12.282429643607728
    92   2      2.9109279869829363      5.0405944310706161      5.5518706088996659
    93   2      8.7478157956748213      5.0580336643813641       5.493041687822604
    94   2      5.8267547982065997                       0     0.84163042435634416
    95   2   -0.038442102524583362      6.6133717358850435      7.9607929798771879
    96   2       8.742241076909167      1.6077533121512131       8.073712783545318
    97   2      8.7401321973098778      5.0461176768697538     0.84163042435634416
    98   2      2.9133773991032785      5.0461176768697538     0.84163042435634416
    99   2      5.8490334590451658  -0.0025923956655282119      5.5491239403611958
   100   2       8.740132197309876      8.4101961281162527      3.4593945362622507
   101   2      5.8305410343995643      6.7116338550393575      7.8214787729128714
   102   2      2.8792656271310695      1.6878281636970989      7.8296614567155647
   103   2      5.8267547982065553      3.3640784512465056      3.4593945362622507
   104   2 -4.3599999999999992e-14      3.3640784512465056      3.4593945362622507
   105   2   0.0039261289302581432   -0.030396818493514201      5.5396948980363074
   106   2  8.9999999999999983e-16                       0     0.84163042435634416
   107   2      2.9133773991032776      8.4101961281162527      3.4593945362622507
   108   3      10.307360229765992       4.002806496539371      7.6361494653526822
   109   3      2.9133773991032772      3.0917580036970467      3.3010724808649616
   110   3 -4.3599999999999992e-14      8.1378756805668004      3.3010724808649616
   111   3      5.8267547982065553      8.1378756805668004      3.3010724808649616
   112   3       4.132202971906807      2.3857284981765692      1.3166483637921624
   113   3      9.9589577701134058      2.3857284981765692      1.3166483637921624
   114   3      1.2188255728034858      7.4318461750463234      1.3166483637921624
   115   3      7.0455803710100851      7.4318461750463234      1.3166483637921624
   116   3       4.158095492158429      9.1316766493447012      7.7842324249811572
   117   3      6.1923989383914737      7.8984050707176738      10.287460495955289
   118   3      4.5681409026130284       9.101634942254087      11.832698673163398
   119   3      2.9344157523972019      7.0718067670238751      7.8863810556584992
   120   3      4.6219596315960576      4.1674272063692408      7.6099771103534968
   121   3      7.5717753837108246      9.1547343188249126      7.7000617638857971
   122   3      1.7452971937625847      9.1821120253013557      7.7587350805131763
   123   3      7.5261095481033937      7.6954561323873971      5.7867616209368409
   124   3      1.7049169115988891      7.6752990226965121      5.8484851723383784
   125   3      8.7936341302069518      7.5685879652687138      11.543085736417167
   126   3      6.7945299522492828      2.8528420482101642      10.820506892931849
   127   3      2.1773365055757212      4.9306988267709624      9.9401376868761719
   128   3      11.099847161942112      9.1746874721622156      12.176623718098847
   129   3       4.134229673107142     0.97717983658635332      3.3010724808649616
   130   3       8.740132197309876      3.0917580036970467      3.3010724808649616
   131   3      4.7584062605097124      1.4737304379818332      12.103038267452799
   132   3      2.3749081511267369      9.5267039473793229      10.623778953030451
   133   3      5.8267547982065553      5.3207783573863692      1.3166483637921624
   134   3      9.1356306509137521      5.0665757587927667       11.32874972249761
   135   3      5.9873041855314151      4.7445970298649209      5.7338501585007711
   136   3      11.230961859147156      4.3011751639332179      9.9899179231237856
   137   3      8.7658620435292072      7.0381947405085761      7.7660845867023678
   138   3      1.6945518262997477      2.3857284981765683      1.3166483637921624
   139   3      9.9611512266053222      7.6536861868977057       5.737493385287868
   140   3      9.9609844713137417     0.97717983658635332      3.3010724808649616
   141   3      7.0476070722104192      6.0232975134561082      3.3010724808649616
   142   3      10.028895867316432       9.124236914616457      7.6327151215995368
   143   3      1.1007309428489662       4.031132912912156      7.6726565530414907
   144   3      7.0588508649110722      4.0331717035704377      7.7853914858347677
   145   3      2.9557855969860261       9.823655636317012      5.7782841076909977
   146   3      8.7600183166219363      9.8113523836914496      5.7061376867236469
   147   3      4.6714176662264144      2.6592666167732046      5.7370791702624269
   148   3      10.419541695972599      2.5719556985666934        5.67759817175709
   149   3      4.6079292254030255      7.4318461750463234      1.3166483637921624
   150   3      1.6925251250994144     0.97717983658635321      3.3010724808649616
   151   3      10.524667581504364      1.7736147691804349      10.588885175329887
   152   3      8.3787754897147284     0.73982498256163554      11.873495840959661
   153   3      1.9679532180586849      5.8910537609721825      12.927831178195591
   154   3      7.0777512079638099       5.331642645890466      10.021314577692962
   155   3     0.87708563237724946      1.2066961737614113      12.534523907178009
   156   3      3.1737568842840616      7.1743605637675509      10.687902513936464
   157   3      7.5213066245063471      2.3857284981765683      1.3166483637921624
   158   3        2.45482617960042      1.9598721703104902      10.530803838307941
   159   3      10.434684023609625      7.4318461750463234      1.3166483637921624
   160   3      5.7495811694169925        2.00250500901421      7.8011841388325305
   161   3   -0.078953735312476667      1.9682058787131125      7.7043959377967788
   162   3      1.2208522740038206      6.0232975134561082      3.3010724808649616
   163   3      7.1266284096219401      2.5770125295934161      5.8689500396743046
   164   3      1.1820306869924804      2.6198801765518094      5.7345876213853151
   165   3      4.1315575178362485      7.6802292770096336      5.8409769681067765
   166   3      4.6059025242026905      6.0232975134561082      3.3010724808649616
   167   3      7.0304013518841417      8.5954300447242655      12.723617513710254
   168   3     0.99771311060397927      3.6524704720705681       11.85954537384055
   169   3      9.3324274000978633      9.3882928793140632      10.124072434546152
   170   3      9.2161931495873581      3.0361444228139027      12.782072879063533
   171   3   -0.035515929225231439      4.7478934733606524      5.7129244799356975
   172   3      4.5144171563937361      3.2170434254981228      10.052835642258401
   173   3      11.443014484365174      6.2374857043677787      11.817403429372966
   174   3      4.0757944405210225      4.4602953314116096      12.212290322591999
   175   3      6.5047001961283692     0.19002296430495608      10.427864449226874
   176   3      5.6197277170170343      6.2588777497799146      11.912636963829939
   177   3     0.40851575370983112      8.1869385933231538      10.004520910741487
   178   3 -4.3599999999999992e-14      5.3207783573863692      1.3166483637921624
   179   3       8.740132197309876      0.2746606805166148      1.3166483637921624
   180   3      2.9133773991032776      0.2746606805166148      1.3166483637921624
   181   3      10.432657322409289      6.0232975134561082      3.3010724808649616
   182   3       7.519279923306013     0.97717983658635321      3.3010724808649616
   183   4    -0.07470639358353183      3.3294911967904355      6.6944655553488586
   184   4       5.875700580625562      3.3579288971868735      6.7720325957983922
   185   4      2.9133773991032776      1.6820392256232506      2.2987940834959804
   186   4 -4.3599999999999992e-14      6.7281569024930041      2.2987940834959804
   187   4      2.9298495523242725      8.4348145462236523      6.8105460176979138
   188   4      8.7749741906102816      8.4153679944056847      6.7473224022205445
   189   4      5.8267547982065553      6.7281569024930041      2.2987940834959804
   190   4       8.740132197309876      1.6820392256232506      2.2987940834959804
