(written by ASE)

190 atoms
4 atom types

0.0      11.653509596413199  xlo xhi
0.0        10.0922353537395  ylo yhi
0.0                      30  zlo zhi
                      0                       0                       0  xy xz yz

Atoms # atomic

     1   1     0.84079225324805862     0.44998455969074036      5.1676984577899212
     2   1      9.5743280045948342      5.5354703184387679      5.0917074856052942
     3   1      10.887622616572871      3.3482075874934236      10.191433553645126
     4   1      3.7323169043484041      5.5249128405259338      5.1561801168414796
     5   1      8.7207783753416663      3.0574746793535827      12.373304906319403
     6   1      6.7036700639414164     0.48892981953595954      5.1945321614502324
     7   1      3.8730388985569175      2.7679977978451502      10.500733610533429
     8   1      2.0849657834714814      2.2785616274978837      8.1526883130033578
     9   1      5.1340180380842479      8.5897873228692987      11.139113927002787
    10   1      3.7546337913945762      4.5604180723228787                     0.5
    11   1      4.7940570291454581     0.61519137765410958       11.99475558906525
    12   1      6.6680111904978974      9.6065357491926271                     0.5
    13   1       3.008806555800414      7.4121122513328075      9.4901069472461685
    14   1      3.2380767350085655      9.2306035137376927      11.225586730118904
    15   1     0.88315172553733334      3.9752111286624991      11.137885697656078
    16   1      5.7546426753693911      5.7623056936037713       8.177412997496587
    17   1   -0.053178310865441634      5.6328801029376105      8.3737204880145466
    18   1      1.0924090483013369      5.8293470490112806      12.682058988282389
    19   1      8.6811865029632695     0.61153704760881511      8.4515271353125296
    20   1      8.8825779240184506      0.2031552613613978      11.222837289882593
    21   1      2.7933983020485442     0.73489704639909448       8.128848797507267
    22   1      11.171926272236611      1.5512403568619142      11.412961840869823
    23   1      5.8803096512989335      2.9264552050815098      10.616755281967283
    24   1      6.6656747630207986      2.8797277837324504      3.8043095294545042
    25   1     0.83891996481419984      2.8797277837324504      3.8043095294545042
    26   1      9.5790521621241194       7.925845460602198      3.8043095294545042
    27   1 -4.3599999999999992e-14      3.3640784512465056      2.4321633756321481
    28   1      2.9353075412760599      1.7405332263141231      6.8123548152786171
    29   1      2.9049852350891729      4.0692733471313147      5.1485515551133512
    30   1       8.740132197309876      6.0175168859635022                     0.5
    31   1 -4.3599999999999992e-14     0.97139920909375399                     0.5
    32   1      5.8267547982065553     0.97139920909375399                     0.5
    33   1      5.0288810404545332     0.49936466750468189      5.1905478150623185
    34   1      6.9494094770075359      4.3298558954243518      10.232879009184854
    35   1      1.0619917302219306      2.3423069976046138        12.3437916290423
    36   1       8.740132197309876      9.3788974631443622      3.8043095294545042
    37   1     0.84125639229129867      9.6065357491926271                     0.5
    38   1      7.8862386576797832      5.5229830690025148      5.1640642322428398
    39   1      5.8267547982065553      3.3640784512465056      2.4321633756321481
    40   1      9.1264093408600964      8.5389749715452652       10.57527631243738
    41   1       8.740132197309876      8.4101961281162527      2.4321633756321481
    42   1      2.9133773991032776      8.4101961281162527      2.4321633756321481
    43   1      9.5813885896011737      4.5604180723228787                     0.5
    44   1      2.9133773991032776      9.3788974631443622      3.8043095294545042
    45   1      2.5818132016455078      5.6790281062342336      10.251909545373421
    46   1      7.9507616336012381      2.1520100106499798      8.4278587746193594
    47   1      11.192745016006883      8.6487174852335045      11.550796540868454
    48   1      5.0966162557581427      7.3162433612713249      8.1334351591143292
    49   1      7.0512272133194163      9.5270719634708776      12.358131553412408
    50   1      10.715011021099778      7.0763189511755851      8.2277990960445955
    51   1      2.5447386265124896      1.1306292982486617      10.831495193336945
    52   1      2.0744574342890343       7.925845460602198      3.8043095294545042
    53   1      2.9133773991032785      5.0461176768697538       1.866758950346576
    54   1      5.8267547982065997                       0       1.866758950346576
    55   1  8.9999999999999983e-16                       0       1.866758950346576
    56   1      7.8988758050185357      4.5604180723228804                     0.5
    57   1      2.0721210068119365      4.5604180723228804                     0.5
    58   1      10.812253204121857      9.6065357491926289                     0.5
    59   1      2.9133773991032776      6.0175168859635022                     0.5
    60   1       10.81099106658286     0.45286788572783476      5.1583107477613801
    61   1      2.0503807000556944      5.5174385390433667       5.219729842952809
    62   1      8.4325675813528491      5.3546688001409573      10.770486711136758
    63   1      8.7547173800141493      4.0783231007175749      5.1094655186607154
    64   1      8.7989343137484592      5.0228489182301637      6.4870502848158491
    65   1       2.959329856826495      4.9887833825327057      6.5467838751785354
    66   1       5.862227208510439   -0.028193388991079479      6.5499080005858907
    67   1   -0.019984195847768192   -0.057865707666710738      6.5269088700536191
    68   1      5.9418890593432296      6.7203774735841968      6.8027095899644721
    69   1      5.8316775539535106      6.9123757883828896       11.02416953328057
    70   1   -0.038309344285300015      6.4960659681925677      6.9446502083837212
    71   1       8.652722525445304      1.5278700442644297      7.0542051548314761
    72   1      10.814589631598912      2.8797277837324491      3.8043095294545042
    73   1      7.1453562362357417     0.75349569233038571       10.94576880316332
    74   1 -4.3599999999999992e-14      4.3327797862746138      3.8043095294545042
    75   1      4.9854984059152576      9.6065357491926289                     0.5
    76   1      3.7522973639175206       7.925845460602198      3.8043095294545042
    77   1      8.7401321973098778      5.0461176768697538       1.866758950346576
    78   1      3.7549927043847462      2.1420770171312431      8.2135379196357139
    79   1      4.9254819899467721      5.5112317985179518      12.170562777309684
    80   1       9.635062075381386      2.0027620885479474      8.3063385477053853
    81   1      1.0655109035390598      8.8874522139288974      10.285100864259606
    82   1     0.74467760271178329      7.1119544736273914       8.289528776795569
    83   1      8.1679000110825637      7.9201064478007179      12.196002952215272
    84   1      6.7341433586965058       7.120174653624761      8.2361857538345813
    85   1 -5.3270120168143235e-05      9.0910490557561019       5.140971929632336
    86   1      5.8267547982065553      4.3327797862746138      3.8043095294545042
    87   1      5.8628457736429063      9.1278277428796812      5.1479359640119702
    88   1      7.9012122324956335       7.925845460602198      3.8043095294545042
    89   1      10.484940359275488      5.7717810769924469      11.727870528326559
    90   1      4.9878348333923119      2.8797277837324491      3.8043095294545042
    91   1      3.0131572833969087      4.9107589867764521      12.631179704035416
    92   2      2.9062125080915986      5.0301637616654871       5.519677329027239
    93   2      8.7482239536376127      5.0454240670283319      5.4609187334135783
    94   2      5.8267547982065997                       0     0.84163042435634416
    95   2   -0.071515013807359265      6.5814503861788358      7.9695193011202328
    96   2       8.728058282235331      1.5733031194821105      8.0808529913448854
    97   2      8.7401321973098778      5.0461176768697538     0.84163042435634416
    98   2      2.9133773991032785      5.0461176768697538     0.84163042435634416
    99   2       5.861565453721636   -0.005673332101805823      5.5207291053855299
   100   2       8.740132197309876      8.4101961281162527      3.4593945362622507
   101   2      5.8779231162666816       6.723665930765538      7.8324804270654971
   102   2      2.8926389985809866      1.7196771408725398      7.8392095371096424
   103   2      5.8267547982065553      3.3640784512465056      3.4593945362622507
   104   2 -4.3599999999999992e-14      3.3640784512465056      3.4593945362622507
   105   2  -0.0021397059586478525   -0.037419433940897119      5.4980703570062346
   106   2  8.9999999999999983e-16                       0     0.84163042435634416
   107   2      2.9133773991032776      8.4101961281162527      3.4593945362622507
   108   3      10.310317245864711      3.9852582583435954      7.6594526785921895
   109   3      2.9133773991032772      3.0917580036970467      3.3010724808649616
   110   3 -4.3599999999999992e-14      8.1378756805668004      3.3010724808649616
   111   3      5.8267547982065553      8.1378756805668004      3.3010724808649616
   112   3       4.132202971906807      2.3857284981765692      1.3166483637921624
   113   3      9.9589577701134058      2.3857284981765692      1.3166483637921624
   114   3      1.2188255728034858      7.4318461750463234      1.3166483637921624
   115   3      7.0455803710100851      7.4318461750463234      1.3166483637921624
   116   3       4.164322559977589        9.15904203168901      7.7722861130010337
   117   3      5.8034392959510797      7.7161866622001627      10.401123374802824
   118   3      4.4826741792751976      9.1012386684800717       11.80214232284726
   119   3      2.8928578812981085      7.1189455510473296      7.9363250512093009
   120   3      4.6278106781769628      4.1457070458728147      7.6188245202602971
   121   3      7.5837726435802129      9.1374061406825717      7.7101973096025453
   122   3      1.7299667731161346       9.219539171231224      7.7870394246747834
   123   3       7.538299439422719      7.7067370220493459      5.7472933504646742
   124   3      1.6958701150912516      7.7042827420191786      5.9024848830773626
   125   3      8.7507380578067728       7.527992761690494      11.501455156182354
   126   3      6.8589163972959479      3.0575457583127221      10.848356452774652
   127   3      2.0828554791736811      4.9102374955385821      9.9781359699282426
   128   3      10.893588047921321      9.1804341443757043      12.283241788500323
   129   3       4.134229673107142     0.97717983658635332      3.3010724808649616
   130   3       8.740132197309876      3.0917580036970467      3.3010724808649616
   131   3      4.6564438435741913      1.5395700134272348       12.21240497398116
   132   3      2.3847626317933006      9.6962535998952681      10.882342721747436
   133   3      5.8267547982065553      5.3207783573863692      1.3166483637921624
   134   3      9.1933528897412167      5.0361669506657938      11.301301489903297
   135   3      5.9406024179166179      4.7205030667078622      5.7065857701007214
   136   3      11.363068378474734      4.1773995232643131      10.030667415647114
   137   3      8.7784792826240317      7.0324827311393276      7.7471890712354421
   138   3      1.6945518262997477      2.3857284981765683      1.3166483637921624
   139   3      9.9624378276304508      7.6598427455770821      5.7228506251232059
   140   3      9.9609844713137417     0.97717983658635332      3.3010724808649616
   141   3      7.0476070722104192      6.0232975134561082      3.3010724808649616
   142   3      10.050176541378985      9.1025950756455778      7.6311606451237397
   143   3      1.1701680058134569      3.9763515995386545       7.635887162043999
   144   3      7.0808737488149154      3.9598323729763445      7.7155640972694792
   145   3      2.9376634516938962      9.8148833516702556       5.758773098190602
   146   3      8.7579892419855501      9.8185963121597393      5.7260670657609456
   147   3      4.6218895420265964      2.6428892765798944      5.7215623929142252
   148   3       10.35427363770942      2.5929697955079325      5.7467869463819428
   149   3      4.6079292254030255      7.4318461750463234      1.3166483637921624
   150   3      1.6925251250994144     0.97717983658635321      3.3010724808649616
   151   3      10.536764250270325       1.883719286757616      10.740938938550661
   152   3      8.3786442126377132     0.77202197253995486      11.869049778315537
   153   3      2.0001348935398915      5.8899166949536763      13.036106240250531
   154   3      7.1286387448961115      5.2962859261652442      10.019637152046869
   155   3     0.84634376130265687      1.3833017333707813      12.325945092401236
   156   3      3.1700269910521066      7.1881368281850557      10.421032552004023
   157   3      7.5213066245063471      2.3857284981765683      1.3166483637921624
   158   3      2.6274746675496941      2.0589362043406596      10.517453424050082
   159   3      10.434684023609625      7.4318461750463234      1.3166483637921624
   160   3      5.7453968825591755      1.9376790735672798      7.7327817207906389
   161   3   -0.034325842913844475      1.8992565004782282      7.7003178982072829
   162   3      1.2208522740038206      6.0232975134561082      3.3010724808649616
   163   3      7.0534686746865214       2.557625279586742       5.763254488582791
   164   3      1.1475448284788328      2.5922185966539932      5.7438068312093797
   165   3      4.1089761300137404      7.6721294038170988      5.8561204177682695
   166   3      4.6059025242026905      6.0232975134561082      3.3010724808649616
   167   3      7.0752395363515248        8.71614205102669      12.863781380898452
   168   3      1.0976401940833456      3.8061501454727509      12.076565365761308
   169   3      9.3296676452874525      9.4321873291198095      10.171759248148645
   170   3      9.1984263098158916      3.1104509309159099      13.189875712597992
   171   3    -0.10503241470997866      4.7279780179864508      5.7649403645767405
   172   3      4.6625482100101436       3.142512321047906      10.037330447720581
   173   3      11.279000618332574      6.1893792595285406      12.095935853870456
   174   3      3.8277312126334184      4.5015361738720188      12.249397168846448
   175   3      6.4247613092585674     0.26357135028157758      10.513150649317014
   176   3      5.7413004873022331      6.0832039584197757      12.100932972581006
   177   3     0.35814579607322627      8.2423943450219319      10.159071971305483
   178   3 -4.3599999999999992e-14      5.3207783573863692      1.3166483637921624
   179   3       8.740132197309876      0.2746606805166148      1.3166483637921624
   180   3      2.9133773991032776      0.2746606805166148      1.3166483637921624
   181   3      10.432657322409289      6.0232975134561082      3.3010724808649616
   182   3       7.519279923306013     0.97717983658635321      3.3010724808649616
   183   4   -0.091458659862781788      3.3002922836009221      6.7369673474825902
   184   4       5.844015206090579      3.3226291151795255      6.7382605355949359
   185   4      2.9133773991032776      1.6820392256232506      2.2987940834959804
   186   4 -4.3599999999999992e-14      6.7281569024930041      2.2987940834959804
   187   4        2.92034194799077      8.4705483562209825      6.8097528886764138
   188   4      8.7836880700469244      8.4170454904450533      6.7351613787874749
   189   4      5.8267547982065553      6.7281569024930041      2.2987940834959804
   190   4       8.740132197309876      1.6820392256232506      2.2987940834959804
