(written by ASE)

190 atoms
4 atom types

0.0      11.653509596413199  xlo xhi
0.0        10.0922353537395  ylo yhi
0.0                      30  zlo zhi
                      0                       0                       0  xy xz yz

Atoms # atomic

     1   1     0.83735850512401677      0.4618367956050794      5.1854003051875246
     2   1      9.5725813393588766      5.5538268052342437      5.1099574635714351
     3   1      10.771021660563763      3.4413527540970126      10.139683544973254
     4   1      3.7378849377981282      5.5330355770890058      5.1763244372985096
     5   1      8.6353909516853697      3.0787804773992709       12.26126704575954
     6   1      6.7003227736048716     0.48728438752026132      5.2075751167562832
     7   1       3.816545755533757      2.8575543267062296      10.423834528196526
     8   1      2.0379301540405921       2.204455136739901      8.1197734812732207
     9   1      5.2052939722605389      8.6672944495613429      11.181097946719177
    10   1      3.7546337913945762      4.5604180723228787                     0.5
    11   1      4.7996313304152771     0.55352160311981857      12.048445957739073
    12   1      6.6680111904978974      9.6065357491926271                     0.5
    13   1      2.9938928375616976      7.5792816408321473       9.667493883882349
    14   1      3.1451463973396976      9.1550852343097624      11.270438236983683
    15   1     0.86737160276154035      4.0009563169182085      11.083952121019609
    16   1      5.7464099430803044      5.7459678007135384      8.1374528585070518
    17   1   -0.055112774578273932       5.645773584689576      8.3584232435553396
    18   1      1.1136659782371088      5.8865930874485395       12.64199393165865
    19   1      8.7071674205197169     0.62321896305316005      8.4460477322030627
    20   1      8.9412803757013286     0.22508665871820868      11.295506961554409
    21   1      2.8049563680486487     0.72853975016428807      8.1283926747639388
    22   1      11.026656503918565      1.5173055891437748       11.40355275607654
    23   1      5.8347062260000433      2.8055963013817746      10.716813022986942
    24   1      6.6656747630207986      2.8797277837324504      3.8043095294545042
    25   1     0.83891996481419984      2.8797277837324504      3.8043095294545042
    26   1      9.5790521621241194       7.925845460602198      3.8043095294545042
    27   1 -4.3599999999999992e-14      3.3640784512465056      2.4321633756321481
    28   1       2.939124747294215      1.7194912189326372      6.7702238525229932
    29   1      2.9032411176230144      4.0689450056164809      5.1820147072016267
    30   1       8.740132197309876      6.0175168859635022                     0.5
    31   1 -4.3599999999999992e-14     0.97139920909375399                     0.5
    32   1      5.8267547982065553     0.97139920909375399                     0.5
    33   1      5.0215201307818527     0.49667309268894033      5.2030558203303592
    34   1      6.9116973771744181       4.350797225575433       10.12875906859448
    35   1      1.1494321445619604       2.223300388567881      12.272393240849992
    36   1       8.740132197309876      9.3788974631443622      3.8043095294545042
    37   1     0.84125639229129867      9.6065357491926271                     0.5
    38   1      7.9017555450503743      5.5271628171720275      5.1656902343024864
    39   1      5.8267547982065553      3.3640784512465056      2.4321633756321481
    40   1      9.0612188459744942      8.5472600300083741      10.510662256476078
    41   1       8.740132197309876      8.4101961281162527      2.4321633756321481
    42   1      2.9133773991032776      8.4101961281162527      2.4321633756321481
    43   1      9.5813885896011737      4.5604180723228787                     0.5
    44   1      2.9133773991032776      9.3788974631443622      3.8043095294545042
    45   1       2.521603175834203      5.7434669783277457      10.258323782397319
    46   1      7.9376062781572232      2.1408434000458576      8.4169584868807128
    47   1      11.055356941193692        8.66742861782771      11.469850983061523
    48   1       5.031209467759659      7.2693199366227441      8.0891021003805701
    49   1      7.0158520278963685      9.3804119086973348      12.240473829499873
    50   1      10.751410165373027      7.1040683705191334      8.2389034718156324
    51   1      2.6819875729055833      1.1561864447439234      10.840728969106623
    52   1      2.0744574342890343       7.925845460602198      3.8043095294545042
    53   1      2.9133773991032785      5.0461176768697538       1.866758950346576
    54   1      5.8267547982065997                       0       1.866758950346576
    55   1  8.9999999999999983e-16                       0       1.866758950346576
    56   1      7.8988758050185357      4.5604180723228804                     0.5
    57   1      2.0721210068119365      4.5604180723228804                     0.5
    58   1      10.812253204121857      9.6065357491926289                     0.5
    59   1      2.9133773991032776      6.0175168859635022                     0.5
    60   1      10.820576349455704     0.45652295275951421       5.184693825672273
    61   1      2.0592231816502151      5.5177533995500072      5.2229664085561662
    62   1      8.3963002626917351      5.3905557168460581      10.862437566581781
    63   1      8.7397205346865015      4.0846845707081654      5.1251415601778731
    64   1       8.793141274547347      5.0354526488284117      6.5084282830899349
    65   1      2.9465758137899298      5.0112313534181085      6.5664092629595592
    66   1      5.8609546583071914   -0.027073628207323629      6.5667558415408234
    67   1   -0.014995439084301123   -0.053519543003496955      6.5505186920741361
    68   1      5.9090548117894208      6.7141338462858435      6.7846007386910197
    69   1      5.9266630162584093      7.0386081439569024      10.869578834936782
    70   1   -0.022503723689808096      6.5441157658068878      6.9329801366710511
    71   1      8.6742088483599158      1.5492999191702772      7.0494532327529216
    72   1      10.814589631598912      2.8797277837324491      3.8043095294545042
    73   1      7.1591281347527396     0.78257051232989316       10.84143097841317
    74   1 -4.3599999999999992e-14      4.3327797862746138      3.8043095294545042
    75   1      4.9854984059152576      9.6065357491926289                     0.5
    76   1      3.7522973639175206       7.925845460602198      3.8043095294545042
    77   1      8.7401321973098778      5.0461176768697538       1.866758950346576
    78   1       3.741517218947946      2.1271157499734086      8.1992223908044526
    79   1      4.9270010524079257      5.5800970396469829      12.152468109482538
    80   1      9.6336080306580758      2.0328631813538038      8.3242577833999292
    81   1      1.0036147145459942      8.7770206006218565      10.364816935530811
    82   1      0.7662512082172469      7.1121815584071397      8.2994417111509655
    83   1      8.1994512275269376      8.0084067277244753      12.231661067431675
    84   1      6.7107522589993227       7.135774269430013      8.1859225848237234
    85   1  -0.0071833968805891006      9.0861794993390141      5.1699880361869957
    86   1      5.8267547982065553      4.3327797862746138      3.8043095294545042
    87   1        5.85528736608671      9.1289154241104402      5.1720922505199667
    88   1      7.9012122324956335       7.925845460602198      3.8043095294545042
    89   1      10.539991109278294      5.7634880657966967      11.723155469509464
    90   1      4.9878348333923119      2.8797277837324491      3.8043095294545042
    91   1       3.011090814018226      4.6745873522982588      12.505709418691939
    92   2       2.911667076359163      5.0355645271723013      5.5375138002331266
    93   2      8.7547700758627869      5.0505381588334624      5.4803459634899738
    94   2      5.8267547982065997                       0     0.84163042435634416
    95   2   -0.051843255820868399      6.5972656531935421      7.9604238241004612
    96   2      8.7373990894532128      1.5873653546666477      8.0789153988601772
    97   2      8.7401321973098778      5.0461176768697538     0.84163042435634416
    98   2      2.9133773991032785      5.0461176768697538     0.84163042435634416
    99   2      5.8568121525351646  -0.0023113678222515237      5.5376392735411413
   100   2       8.740132197309876      8.4101961281162527      3.4593945362622507
   101   2      5.8497394516230869      6.7159510042396189       7.810854465343005
   102   2      2.8838934874891833      1.7035164158600469      7.8051813615901047
   103   2      5.8267547982065553      3.3640784512465056      3.4593945362622507
   104   2 -4.3599999999999992e-14      3.3640784512465056      3.4593945362622507
   105   2   0.0041805746619238077   -0.038883469897089053      5.5212583128590413
   106   2  8.9999999999999983e-16                       0     0.84163042435634416
   107   2      2.9133773991032776      8.4101961281162527      3.4593945362622507
   108   3      10.312979604589048      3.9824032621237615      7.6237021961910667
   109   3      2.9133773991032772      3.0917580036970467      3.3010724808649616
   110   3 -4.3599999999999992e-14      8.1378756805668004      3.3010724808649616
   111   3      5.8267547982065553      8.1378756805668004      3.3010724808649616
   112   3       4.132202971906807      2.3857284981765692      1.3166483637921624
   113   3      9.9589577701134058      2.3857284981765692      1.3166483637921624
   114   3      1.2188255728034858      7.4318461750463234      1.3166483637921624
   115   3      7.0455803710100851      7.4318461750463234      1.3166483637921624
   116   3      4.1662415700374824      9.1411244253375195      7.7705948716303705
   117   3      5.9973604740005984      7.8607849377409895      10.337870237661532
   118   3      4.5213496725507953      9.1066969439717127      11.749733454811778
   119   3      2.9287072019362457      7.0897443452241253      7.9012816246788207
   120   3      4.6359021432831664      4.1626958131118119      7.5914587970671494
   121   3      7.5740605412884872      9.1405224099163416      7.6937092158142502
   122   3      1.7302199730806109      9.2214285964211609      7.7517826489679234
   123   3      7.5386442375408693      7.6973948089689896      5.7594258514708168
   124   3      1.7140344350799273        7.68118101890198       5.875751830981204
   125   3      8.7666743512778851      7.5437421869250123      11.562359191626863
   126   3       6.813827355790127      2.9667748621900998      10.814313881461429
   127   3      2.1279914393220607      4.9306161080576443      9.9226883308681231
   128   3      11.018952530580846      9.2223440814796724       12.24829124225537
   129   3       4.134229673107142     0.97717983658635332      3.3010724808649616
   130   3       8.740132197309876      3.0917580036970467      3.3010724808649616
   131   3      4.6935426622289178       1.495558490584536      12.176436381729626
   132   3       2.447119140480428      9.6684086540063241      10.778500036537372
   133   3      5.8267547982065553      5.3207783573863692      1.3166483637921624
   134   3      9.1605387645253327      5.0217347398707313      11.331217691778464
   135   3      5.9659367798785823      4.7305797607589932      5.7200125906474248
   136   3      11.331438164958881      4.1997023736559944      9.9651448361535575
   137   3      8.7598344741474641      7.0388312888156541      7.7533934193272405
   138   3      1.6945518262997477      2.3857284981765683      1.3166483637921624
   139   3      9.9631430000983734      7.6564706270450262      5.7142667722687612
   140   3      9.9609844713137417     0.97717983658635332      3.3010724808649616
   141   3      7.0476070722104192      6.0232975134561082      3.3010724808649616
   142   3      10.047025123170158      9.1178804676877601      7.6067177437154099
   143   3        1.13700700646638       4.028395023964805      7.6764159534846961
   144   3      7.0725683365769747      4.0029389120792827      7.7601348530586476
   145   3      2.9500314700888772      9.8173890788522833      5.7639099391824837
   146   3      8.7677204081110176      9.8207750099418121      5.7060051121006818
   147   3      4.6468075262363016      2.6376603334347739      5.7234191886339207
   148   3      10.380417615662239      2.5694203613112077      5.6947651512602349
   149   3      4.6079292254030255      7.4318461750463234      1.3166483637921624
   150   3      1.6925251250994144     0.97717983658635321      3.3010724808649616
   151   3      10.550795863145405      1.8862729314198246      10.646072656979417
   152   3      8.3195259832988278      0.7222683224187092      11.871187369907423
   153   3      2.0012193642747866      5.8583776766714308      13.045142791305125
   154   3       7.105101190679517      5.2901482960072066       9.948713208755585
   155   3     0.88830776055962291      1.3021216794342891      12.484485165776794
   156   3      3.1390926876668397      7.1293060589752519      10.508874473103278
   157   3      7.5213066245063471      2.3857284981765683      1.3166483637921624
   158   3      2.5581721859709621      2.0627682680785955      10.534750241076802
   159   3      10.434684023609625      7.4318461750463234      1.3166483637921624
   160   3      5.7416322744871078      1.9759729871275895      7.7612493484186711
   161   3     -0.0734470676073644      1.9024259498697682      7.7357623047082367
   162   3      1.2208522740038206      6.0232975134561082      3.3010724808649616
   163   3      7.0903256791834828      2.5654170286808498      5.8147798078787316
   164   3      1.1446183100816625      2.6209895637650975      5.6712812681832059
   165   3      4.1150511329430097      7.6721514180237413      5.8475855335430094
   166   3      4.6059025242026905      6.0232975134561082      3.3010724808649616
   167   3      7.0414839658423096      8.6504410176134581      12.868111200017511
   168   3      1.0408527092319091      3.6296644179518243      11.971163024916276
   169   3      9.3880190052940709      9.3992166987840253      10.151523081938061
   170   3      9.2118910064910455      3.0957426846392879      13.015062168318968
   171   3    -0.06023666714795356      4.7538126805735983      5.7118489385392586
   172   3      4.6319362529426549      3.1935788191551504      10.005186068775679
   173   3      11.366010686175301      6.2100960145526169       11.96837929666378
   174   3      3.9480519187550822      4.4161066179519759      12.238191989830767
   175   3      6.4759943772138957      0.2041040875054593      10.475569645243699
   176   3      5.7180054255311541      6.1590969047470203      12.098533694695337
   177   3     0.31222898442827529      8.1962469080924052        10.0560556956301
   178   3 -4.3599999999999992e-14      5.3207783573863692      1.3166483637921624
   179   3       8.740132197309876      0.2746606805166148      1.3166483637921624
   180   3      2.9133773991032776      0.2746606805166148      1.3166483637921624
   181   3      10.432657322409289      6.0232975134561082      3.3010724808649616
   182   3       7.519279923306013     0.97717983658635321      3.3010724808649616
   183   4    -0.08071325422127415      3.3154897482083285       6.720150364240725
   184   4      5.8599574609417102      3.3399986727964186      6.7529358531355026
   185   4      2.9133773991032776      1.6820392256232506      2.2987940834959804
   186   4 -4.3599999999999992e-14      6.7281569024930041      2.2987940834959804
   187   4      2.9209183493490731      8.4533791613062466      6.8026721170145397
   188   4      8.7802446949237716      8.4225901263729455      6.7274517745633799
   189   4      5.8267547982065553      6.7281569024930041      2.2987940834959804
   190   4       8.740132197309876      1.6820392256232506      2.2987940834959804
