(written by ASE)

190 atoms
4 atom types

0.0      11.653509596413199  xlo xhi
0.0        10.0922353537395  ylo yhi
0.0                      30  zlo zhi
                      0                       0                       0  xy xz yz

Atoms # atomic

     1   1     0.84010317203207063     0.48530047407826971       5.220421909116828
     2   1      9.5802350228079902      5.5314183119227884      5.2204216923614863
     3   1      10.709497999999998      3.5819969999999999               10.390164
     4   1      3.7534803763357303      5.5314182425225553      5.2204218478528395
     5   1      8.3121919999999978                 2.83718      11.604471999999999
     6   1      6.6668577815975247     0.48530052360144632      5.2204217268716029
     7   1      2.7622669999999996      2.9622839999999999               10.395901
     8   1       2.063923810562724      2.1785952447092112      8.3908769008618442
     9   1      4.9660199999999994      9.1323170000000005               10.694977
    10   1      3.7546337913945762      4.5604180723228787                     0.5
    11   1      5.0332499999999989     0.97081499999999998               11.616296
    12   1      6.6680111904978974      9.6065357491926271                     0.5
    13   1      3.8529939999999994      7.5004720000000002                10.39485
    14   1      2.8375299999999997      9.1162410000000005      11.603593999999999
    15   1     0.93592599999999992      3.6864300000000001      10.758317999999999
    16   1      5.8214516063067228      5.7442304776705582      8.3908770560358175
    17   1  -0.0053034822140214993      5.7442304646174591      8.3908770592895241
    18   1     0.99582499999999985      5.8617920000000003      11.400975000000001
    19   1      8.7348289846702425     0.69811239835801198      8.3908767931537316
    20   1      8.8046049999999987     0.99733700000000003               10.690322
    21   1      2.9080742302066893     0.69811277451082421      8.3908768997136516
    22   1      10.737764999999998      1.9913400000000001      11.601345999999999
    23   1      5.8635789999999988      2.9339089999999999      10.379398999999999
    24   1      6.6656747630207986      2.8797277837324504      3.8043095294545042
    25   1     0.83891996481419984      2.8797277837324504      3.8043095294545042
    26   1      9.5790521621241194       7.925845460602198      3.8043095294545042
    27   1 -4.3599999999999992e-14      3.3640784512465056      2.4321633756321481
    28   1      2.9133774123487268      1.6820390242301473      7.0551120553115849
    29   1      2.9136083247134872      4.0759169765081431      5.2204217152063626
    30   1       8.740132197309876      6.0175168859635022                     0.5
    31   1 -4.3599999999999992e-14     0.97139920909375399                     0.5
    32   1      5.8267547982065553     0.97139920909375399                     0.5
    33   1      4.9864206582618831     0.48490030053022293      5.2204221520064689
    34   1      6.7403619999999993      4.7388599999999999               10.412492
    35   1      1.2281079999999998                1.892377               11.590947
    36   1       8.740132197309876      9.3788974631443622      3.8043095294545042
    37   1     0.84125639229129867      9.6065357491926271                     0.5
    38   1      7.8997979214591663      5.5310181007560475      5.2204220763887363
    39   1      5.8267547982065553      3.3640784512465056      2.4321633756321481
    40   1      8.8823079999999983                9.118074      11.328234999999999
    41   1       8.740132197309876      8.4101961281162527      2.4321633756321481
    42   1      2.9133773991032776      8.4101961281162527      2.4321633756321481
    43   1      9.5813885896011737      4.5604180723228787                     0.5
    44   1      2.9133773991032776      9.3788974631443622      3.8043095294545042
    45   1      3.0113859999999995      5.6886640000000002      10.383463000000001
    46   1      7.8906786396921644      2.1785948989366024      8.3908768649343486
    47   1      10.728421999999998      8.2976700000000001      10.668882999999999
    48   1      4.9773009998283539      7.2247130074541364      8.3908767128930588
    49   1      6.9635359999999995      9.1367530000000006      10.767092999999999
    50   1       10.80405584405028      7.2247130148629797       8.390876947687973
    51   1      3.4634579999999997     0.97042499999999998      10.379637000000001
    52   1      2.0744574342890343       7.925845460602198      3.8043095294545042
    53   1      2.9133773991032785      5.0461176768697538       1.866758950346576
    54   1      5.8267547982065997                       0       1.866758950346576
    55   1  8.9999999999999983e-16                       0       1.866758950346576
    56   1      7.8988758050185357      4.5604180723228804                     0.5
    57   1      2.0721210068119365      4.5604180723228804                     0.5
    58   1      10.812253204121857      9.6065357491926289                     0.5
    59   1      2.9133773991032776      6.0175168859635022                     0.5
    60   1      10.813175232934439     0.48490055974333951      5.2204221295472903
    61   1      2.0730432537386156      5.5310182279262969       5.220421683169441
    62   1      8.5807209999999987      5.4884909999999998               10.639213
    63   1      8.7403631332477225       4.075916988914809      5.2204218642559432
    64   1      8.7401321444380962       5.046117644469299      6.5934033341026348
    65   1      2.9133772362225123      5.0461176533220282      6.5934029912391603
    66   1      5.8267548901571677         3.865980886e-07      6.5934035860506883
    67   1  3.1671848359999997e-07 -4.0552330189999999e-07      6.5934033405973675
    68   1      5.8267547785316793       6.728156471909629      7.0551119205030366
    69   1      6.6697219999999993      6.8000179999999997               10.392555
    70   1  1.1980708909999998e-07      6.7281568141023067         7.0551118729028
    71   1      8.7401319231671017      1.6820390857632066      7.0551117861017119
    72   1      10.814589631598912      2.8797277837324491      3.8043095294545042
    73   1      7.0274639999999993                1.093798               11.602535
    74   1 -4.3599999999999992e-14      4.3327797862746138      3.8043095294545042
    75   1      4.9854984059152576      9.6065357491926289                     0.5
    76   1      3.7522973639175206       7.925845460602198      3.8043095294545042
    77   1      8.7401321973098778      5.0461176768697538       1.866758950346576
    78   1      3.7681347564098777      2.1694096066121862      8.3908767417594294
    79   1       5.001898999999999      5.7122799999999998               10.575604
    80   1      9.5948893343411363      2.1694095885066029      8.3908767820766723
    81   1     0.98882099999999984      8.3776519999999994               11.417909
    82   1     0.85475717972769849       7.215527481153031       8.390876865985426
    83   1      8.1904809999999983      7.2623430000000004               11.605665
    84   1      6.6815117445019627      7.2155274051460498      8.3908766931086465
    85   1  0.00023086750074479998      9.1220347820547243      5.2204215723784095
    86   1      5.8267547982065553      4.3327797862746138      3.8043095294545042
    87   1      5.8269856455559319      9.1220345836406054      5.2204221045751806
    88   1      7.9012122324956335       7.925845460602198      3.8043095294545042
    89   1      10.711293999999999      6.2998989999999999      10.740754000000001
    90   1      4.9878348333923119      2.8797277837324491      3.8043095294545042
    91   1      3.9085509999999997      4.4320839999999997                11.65316
    92   2       2.913377331227117      5.0461176923655033      5.5634944517946332
    93   2      8.7401318964435699      5.0461179211241607       5.563493895397742
    94   2      5.8267547982065997                       0     0.84163042435634416
    95   2  1.7257322389999996e-07      6.7281567089253986      8.0841741649436365
    96   2      8.7401316576957395      1.6820392094888514      8.0841743112808562
    97   2      8.7401321973098778      5.0461176768697538     0.84163042435634416
    98   2      2.9133773991032785      5.0461176768697538     0.84163042435634416
    99   2      5.8267545340141886  6.8089701100000005e-08      5.5634939833401029
   100   2       8.740132197309876      8.4101961281162527      3.4593945362622507
   101   2      5.8267551965121811      6.7281567457068245      8.0841743217812585
   102   2      2.9133775744403154      1.6820388720922383      8.0841743276055045
   103   2      5.8267547982065553      3.3640784512465056      3.4593945362622507
   104   2 -4.3599999999999992e-14      3.3640784512465056      3.4593945362622507
   105   2  1.8237469699999996e-08 -5.4232439329999996e-07      5.5634944740157426
   106   2  8.9999999999999983e-16                       0     0.84163042435634416
   107   2      2.9133773991032776      8.4101961281162527      3.4593945362622507
   108   3      10.432035801397218      4.0690562547317422      7.9060480459883653
   109   3      2.9133773991032772      3.0917580036970467      3.3010724808649616
   110   3 -4.3599999999999992e-14      8.1378756805668004      3.3010724808649616
   111   3      5.8267547982065553      8.1378756805668004      3.3010724808649616
   112   3       4.132202971906807      2.3857284981765692      1.3166483637921624
   113   3      9.9589577701134058      2.3857284981765692      1.3166483637921624
   114   3      1.2188255728034858      7.4318461750463234      1.3166483637921624
   115   3      7.0455803710100851      7.4318461750463234      1.3166483637921624
   116   3      4.1346430135119991      9.1155343591188718      7.9060476356906131
   117   3      5.9836419999999988      7.4410679999999996               10.373327
   118   3      4.8300069999999993      8.9431840000000005               11.604785
   119   3       2.913585520554562      6.9998801016948606       7.906048094936601
   120   3      4.6052810093949912      4.0690562695319201      7.9060475033467732
   121   3      7.5186583518142385      9.1151743086014392      7.9060476696987863
   122   3      1.6919037378663027      9.1151739560236464      7.9060476253124676
   123   3       7.521302666944699      7.7051372127836704      5.9183368921010286
   124   3       1.694548030860588      7.7051369465133641      5.9183368054580408
   125   3      9.1232489999999977      7.1529590000000001               11.606017
   126   3      6.3626239999999994      2.9306860000000001      11.174989999999999
   127   3      2.4482829999999995      4.9370419999999999               10.383879
   128   3      10.713556999999998      8.3651909999999994               11.605494
   129   3       4.134229673107142     0.97717983658635332      3.3010724808649616
   130   3       8.740132197309876      3.0917580036970467      3.3010724808649616
   131   3      4.7374679999999989      1.8619460000000001               11.636792
   132   3      2.6962669999999997      9.1071220000000004      10.675164000000001
   133   3      5.8267547982065553      5.3207783573863692      1.3166483637921624
   134   3      8.7797239999999981      5.1860600000000003      11.505789999999999
   135   3       5.825570511891998      4.7721453462249261      5.9183368756902777
   136   3      10.233521999999999      4.3915940000000004      10.385721999999999
   137   3       8.740340119329435      6.9998803457426177      7.9060480354357647
   138   3      1.6945518262997477      2.3857284981765683      1.3166483637921624
   139   3      9.9601457372746278      7.7071885838345455      5.9183368868992678
   140   3      9.9609844713137417     0.97717983658635332      3.3010724808649616
   141   3      7.0476070722104192      6.0232975134561082      3.3010724808649616
   142   3      9.9613974593423418      9.1155344678932995       7.906047839916817
   143   3       1.221265576774939      4.0694167744025682      7.9060477817234123
   144   3      7.0480202876574873       4.069416641228921      7.9060477440001602
   145   3      2.9121933345736042      9.8182629625690385      5.9183369761112949
   146   3      8.7389478314163593      9.8182632064056268      5.9183369503326562
   147   3      4.6079253811446428       2.659019368126915      5.9183364722454197
   148   3       10.43468006605335       2.659019314106335      5.9183369912950967
   149   3      4.6079292254030255      7.4318461750463234      1.3166483637921624
   150   3      1.6925251250994144     0.97717983658635321      3.3010724808649616
   151   3      10.706609999999998      1.6134489999999999               10.742132
   152   3      9.0216009999999986                0.968024      11.603599000000001
   153   3      1.6529269999999998      6.5007510000000002               11.605838
   154   3      6.8119179999999995      4.8721220000000001               11.339392
   155   3     0.97150899999999984     0.98982000000000003               11.630573
   156   3      3.6855609999999994      7.3310209999999998               11.303296
   157   3      7.5213066245063471      2.3857284981765683      1.3166483637921624
   158   3      2.5243459999999995     0.97782800000000003      10.373710000000001
   159   3      10.434684023609625      7.4318461750463234      1.3166483637921624
   160   3      5.8269625793053805      1.9537622453559484      7.9060476640741566
   161   3  0.00020816982439489997      1.9537624616230331       7.906047938127899
   162   3      1.2208522740038206      6.0232975134561082      3.3010724808649616
   163   3      7.0467687226688858      2.6610707841647394      5.9183368549044113
   164   3      1.2200137948209395       2.661071076346138      5.9183369301961966
   165   3      4.1333911840798434      7.7071883457370198      5.9183368773564293
   166   3      4.6059025242026905      6.0232975134561082      3.3010724808649616
   167   3      6.8509729999999989      8.7473460000000003               11.614272
   168   3      1.2671349999999997                3.891724               11.612822
   169   3      8.9258389999999981      9.1133369999999996      10.390097000000001
   170   3      9.1664809999999974                3.227258      11.611565000000001
   171   3  -0.0011847303328573998      4.7721455395043302      5.9183374060589733
   172   3      3.6987709999999994      2.9541879999999998      10.325787999999999
   173   3      10.699898999999998      5.9134359999999999               11.596638
   174   3      4.7581599999999993      4.0323890000000002      11.632436999999999
   175   3      6.8048729999999988      1.0333920000000001               10.692136
   176   3      5.1546439999999993      5.9841369999999996               11.461484
   177   3      0.9992939999999999      8.0581739999999993      10.534821000000001
   178   3 -4.3599999999999992e-14      5.3207783573863692      1.3166483637921624
   179   3       8.740132197309876      0.2746606805166148      1.3166483637921624
   180   3      2.9133773991032776      0.2746606805166148      1.3166483637921624
   181   3      10.432657322409289      6.0232975134561082      3.3010724808649616
   182   3       7.519279923306013     0.97717983658635321      3.3010724808649616
   183   4  6.7313104299999981e-08      3.3640785041950734      6.9263602092570595
   184   4      5.8267548003794536      3.3640784061052442      6.9263598301493188
   185   4      2.9133773991032776      1.6820392256232506      2.2987940834959804
   186   4 -4.3599999999999992e-14      6.7281569024930041      2.2987940834959804
   187   4        2.91337757565997      8.4101962188154502      6.9263599518520653
   188   4      8.7401319824282258      8.4101965349263317      6.9263600465261534
   189   4      5.8267547982065553      6.7281569024930041      2.2987940834959804
   190   4       8.740132197309876      1.6820392256232506      2.2987940834959804
