(written by ASE)

190 atoms
4 atom types

0.0      11.653509596413199  xlo xhi
0.0        10.0922353537395  ylo yhi
0.0                      30  zlo zhi
                      0                       0                       0  xy xz yz

Atoms # atomic

     1   1     0.83969482105159943     0.47327552454668081      5.2138347239631058
     2   1      9.5822866469936674      5.5490512654849438      5.1704082724076317
     3   1      10.704138107328106      3.5996533109699689      10.219873580505867
     4   1      3.7469486142860542      5.5336805010105063      5.2177217493561416
     5   1      8.4392363095226877      3.1267100850978986      11.999491338857334
     6   1      6.6824138573711345     0.48183345808604583        5.22145747290927
     7   1      3.4439638376265416      3.0139907823168892      10.323582661292976
     8   1      2.0324126914047334      2.1303951065639208      8.0824900052366235
     9   1       5.220965968623263        8.86445215489295      11.144296800348508
    10   1      3.7546337913945762      4.5604180723228787                     0.5
    11   1      4.8625552933080716     0.47849709186209582      12.122595957625556
    12   1      6.6680111904978974      9.6065357491926271                     0.5
    13   1      3.2029902538592783      7.6882115033111349      10.095434485244743
    14   1      2.9260181493191215      9.1579091924839151      11.269256527402717
    15   1     0.77940795458010759      3.9994063697421529      10.923451546986074
    16   1      5.7441643109938783      5.7141832478078936       8.099582971239796
    17   1   -0.044853257976957016      5.6817305864441163      8.3443998226541236
    18   1      1.0906708075529714      6.0435982598630753      12.451577651155414
    19   1      8.7436887087261983     0.66033880752528051      8.4312549088250197
    20   1      9.1554566855640367     0.47408128418894147       11.30353003754503
    21   1      2.8251796935909956     0.70335508620281084      8.1122008068116465
    22   1      10.773594250796519      1.5915042400470714      11.373616119495347
    23   1      5.8838544081929864      2.6784291622497909       10.89563532115724
    24   1      6.6656747630207986      2.8797277837324504      3.8043095294545042
    25   1     0.83891996481419984      2.8797277837324504      3.8043095294545042
    26   1      9.5790521621241194       7.925845460602198      3.8043095294545042
    27   1 -4.3599999999999992e-14      3.3640784512465056      2.4321633756321481
    28   1      2.9088940313217488      1.6772963044821279      6.7044776238743493
    29   1      2.9074949479651835      4.0731659884813958      5.2268343375761575
    30   1       8.740132197309876      6.0175168859635022                     0.5
    31   1 -4.3599999999999992e-14     0.97139920909375399                     0.5
    32   1      5.8267547982065553     0.97139920909375399                     0.5
    33   1      4.9981628568023488     0.48711219447861065      5.2216372428577902
    34   1      6.8777450914039413      4.3636974102618256      10.019102399499413
    35   1      1.1736186786609004      1.7128135705399834      12.070961120550713
    36   1       8.740132197309876      9.3788974631443622      3.8043095294545042
    37   1     0.84125639229129867      9.6065357491926271                     0.5
    38   1      7.9042137109684534      5.5346197266477155      5.1957888924490438
    39   1      5.8267547982065553      3.3640784512465056      2.4321633756321481
    40   1      9.0036133801340963      8.6879767739767733      10.655211351044123
    41   1       8.740132197309876      8.4101961281162527      2.4321633756321481
    42   1      2.9133773991032776      8.4101961281162527      2.4321633756321481
    43   1      9.5813885896011737      4.5604180723228787                     0.5
    44   1      2.9133773991032776      9.3788974631443622      3.8043095294545042
    45   1      2.4992851216336818      5.8709663113271908      10.284527650461328
    46   1      7.9207478723790032      2.1492933302066937      8.3940682100990252
    47   1      10.809653256797805      8.7409737243517203      11.349898847514746
    48   1      4.9820736629810236      7.1934881201058598      8.0794154620604388
    49   1      6.9354862375896236      9.1629797819354213      11.814535897175645
    50   1      10.800341598062889      7.1622998491846985      8.2773931489751043
    51   1      2.9081652557832389      1.1612260959522385      10.903290075676878
    52   1      2.0744574342890343       7.925845460602198      3.8043095294545042
    53   1      2.9133773991032785      5.0461176768697538       1.866758950346576
    54   1      5.8267547982065997                       0       1.866758950346576
    55   1  8.9999999999999983e-16                       0       1.866758950346576
    56   1      7.8988758050185357      4.5604180723228804                     0.5
    57   1      2.0721210068119365      4.5604180723228804                     0.5
    58   1      10.812253204121857      9.6065357491926289                     0.5
    59   1      2.9133773991032776      6.0175168859635022                     0.5
    60   1      10.819198732305541     0.47647547787073913      5.2247548143500726
    61   1      2.0666251022716553      5.5240791633714394      5.2278149638745175
    62   1      8.3223532366006605      5.4913772267711316      11.002589605561326
    63   1      8.7427373354499522      4.0841372687545006      5.1790269415937171
    64   1      8.7739025120172762      5.0446137794227646      6.5490722422560257
    65   1      2.9231269512746532      5.0386594278714414      6.5970551775145285
    66   1      5.8434835811352555   -0.015394698303693992      6.5878488781030491
    67   1  -0.0047174179131222235   -0.028692562368483349       6.588216007190062
    68   1      5.8335262542291453      6.6778707530561467      6.7093163192937055
    69   1      6.1981145637323962      7.1181918552521051      10.729684179725579
    70   1   0.0046283985265817293      6.6089335427637144      6.9607226403078339
    71   1      8.7287362642781421      1.6197702289763971      7.0477302279143466
    72   1      10.814589631598912      2.8797277837324491      3.8043095294545042
    73   1      7.0307534579795297     0.81244027561573995      10.788779502917594
    74   1 -4.3599999999999992e-14      4.3327797862746138      3.8043095294545042
    75   1      4.9854984059152576      9.6065357491926289                     0.5
    76   1      3.7522973639175206       7.925845460602198      3.8043095294545042
    77   1      8.7401321973098778      5.0461176768697538       1.866758950346576
    78   1      3.6877464391429289      2.1374406355968545       8.174235690969736
    79   1       4.899623643467776      5.5777504773117039      11.813510059998302
    80   1      9.6189061498078772      2.0985875864045034      8.3724913407730206
    81   1      1.0095746655648683      8.4638468045467281       10.66424984098588
    82   1     0.81854648515700279      7.1279612908937571      8.3498423752880928
    83   1      8.0406275347552008      7.7499225321441303      12.116604894636962
    84   1      6.6297034759022067       7.144253830556786      8.1308552987142946
    85   1  -0.0011461732439158978      9.1040393379867961      5.2142493608168534
    86   1      5.8267547982065553      4.3327797862746138      3.8043095294545042
    87   1      5.8342308718991971       9.124493058144397      5.2064871027701969
    88   1      7.9012122324956335       7.925845460602198      3.8043095294545042
    89   1      10.738734641759565      5.6788715323228685      11.664128447795663
    90   1      4.9878348333923119      2.8797277837324491      3.8043095294545042
    91   1      3.2974512141754331      4.4623679657231961      11.978515459332911
    92   2      2.9120434171283689      5.0441352036330613      5.5672430766926686
    93   2      8.7507470163069616      5.0546324578192321      5.5203950594511957
    94   2      5.8267547982065997                       0     0.84163042435634416
    95   2   -0.013247494237681691      6.6454315785597577      7.9861608558073938
    96   2      8.7508799742952785      1.6311014903408649      8.0778167171470727
    97   2      8.7401321973098778      5.0461176768697538     0.84163042435634416
    98   2      2.9133773991032785      5.0461176768697538     0.84163042435634416
    99   2      5.8382295767503614  -0.0011937378139053097      5.5584528434983307
   100   2       8.740132197309876      8.4101961281162527      3.4593945362622507
   101   2      5.8016699531118423      6.6778054540107172      7.7443848907917232
   102   2      2.8792835032203823      1.6620495862070475       7.744392790839516
   103   2      5.8267547982065553      3.3640784512465056      3.4593945362622507
   104   2 -4.3599999999999992e-14      3.3640784512465056      3.4593945362622507
   105   2   0.0051884566861781284     -0.0186534914947513      5.5580240406398715
   106   2  8.9999999999999983e-16                       0     0.84163042435634416
   107   2      2.9133773991032776      8.4101961281162527      3.4593945362622507
   108   3      10.295625241140621       4.024329131757808      7.4891977567274717
   109   3      2.9133773991032772      3.0917580036970467      3.3010724808649616
   110   3 -4.3599999999999992e-14      8.1378756805668004      3.3010724808649616
   111   3      5.8267547982065553      8.1378756805668004      3.3010724808649616
   112   3       4.132202971906807      2.3857284981765692      1.3166483637921624
   113   3      9.9589577701134058      2.3857284981765692      1.3166483637921624
   114   3      1.2188255728034858      7.4318461750463234      1.3166483637921624
   115   3      7.0455803710100851      7.4318461750463234      1.3166483637921624
   116   3      4.1576263167581331      9.1084111984601748      7.8337186638340732
   117   3      6.5251123504810469      7.8072413289950928      10.149540422921593
   118   3      4.5756312070445242      9.1643999744511397      11.791514979573632
   119   3      2.9543710363414122      7.0314314305308487       7.869130330921001
   120   3      4.6467710069627808      4.2112840555821904      7.6538052713297011
   121   3      7.5568159516367324      9.1411710279928595      7.7409205796447074
   122   3      1.7291874023001281      9.1607771659820205      7.7648707663302829
   123   3      7.5354038323463826      7.6830230482833208       5.806103892916151
   124   3      1.7222756868236677      7.6941343637039026         5.8572943409658
   125   3      8.9057750734410739      7.5444619100495043      11.639728955612977
   126   3      6.7934476519669111      2.9015136715145249      10.630241138947486
   127   3      2.3100346595249741      5.0180692517311458      9.8828063077500747
   128   3      11.180689903512857      9.1978346056516322      12.091090155068864
   129   3       4.134229673107142     0.97717983658635332      3.3010724808649616
   130   3       8.740132197309876      3.0917580036970467      3.3010724808649616
   131   3       4.732964864734436      1.4602587203059645      12.072191074967673
   132   3      2.5227179922452962      9.5983216415419275      10.518640434945748
   133   3      5.8267547982065553      5.3207783573863692      1.3166483637921624
   134   3      9.1557503946449526      5.1022320611459762      11.382685365702493
   135   3      5.9972969206504043      4.7465070740584965      5.7714303054134577
   136   3      11.146803406893383      4.3603009329703433      9.8621321410360121
   137   3      8.7488241760636267      7.0521471601604127      7.8330082330070345
   138   3      1.6945518262997477      2.3857284981765683      1.3166483637921624
   139   3      9.9415775689473023      7.6418250352083446      5.7750142350395821
   140   3      9.9609844713137417     0.97717983658635332      3.3010724808649616
   141   3      7.0476070722104192      6.0232975134561082      3.3010724808649616
   142   3       10.03225180182007      9.1211573839264624      7.6539876040701476
   143   3      1.0966101380308684      4.0932432387099773      7.7246343850860528
   144   3      7.0493457158220529      4.0764557246074169      7.8837477123823243
   145   3       2.973681854016831      9.8012446354611509       5.784752809253062
   146   3      8.7366014965154424      9.8072015442093807      5.7489628975205438
   147   3      4.6856438475386257       2.658460469067836      5.7964856936194051
   148   3      10.460705169712284      2.5925085833286716      5.6306182968050971
   149   3      4.6079292254030255      7.4318461750463234      1.3166483637921624
   150   3      1.6925251250994144     0.97717983658635321      3.3010724808649616
   151   3      10.583536610750752      1.7191211141885834      10.448298469219745
   152   3      8.5407567915177509     0.60520226107575237       12.03834376413567
   153   3      1.9741797406376689      5.8331545798228488      12.812382662648657
   154   3      7.0572762340738739      5.3187182878499977      10.138274274763081
   155   3     0.82537874350983775      1.0322135628283646      12.642076537753045
   156   3       3.072053556686916      7.0857868329063178      10.824398569976927
   157   3      7.5213066245063471      2.3857284981765683      1.3166483637921624
   158   3      2.4123402124269742      1.9007385696984764      10.540241220083352
   159   3      10.434684023609625      7.4318461750463234      1.3166483637921624
   160   3      5.7693338418435394      2.0278138320871322      7.8521298977511735
   161   3     -0.1242410338396867      1.9414246939675208      7.7389430395041545
   162   3      1.2208522740038206      6.0232975134561082      3.3010724808649616
   163   3      7.1318029879484035      2.6252555172806979      5.9207607819398742
   164   3      1.2593239152786257      2.6205120099043313      5.8163210202428326
   165   3      4.1439810834293693      7.6997534118296205       5.848550499127624
   166   3      4.6059025242026905      6.0232975134561082      3.3010724808649616
   167   3       7.150855022334504       8.861050447064553      12.690612887976092
   168   3      1.1608617456925068       3.455975295025612      11.617457716961299
   169   3      9.2151846580636914      9.4708492072484862      10.087035154959532
   170   3      9.1530551989456761      2.8848869472736429      12.581335004783361
   171   3   -0.011949856355486321      4.7399303206669314      5.6625593514989063
   172   3      4.3509774017937666      3.1769971034589122      9.9820531635384206
   173   3       11.46089734643931      6.3067342085954179      11.585753244397718
   174   3      4.0805786554472707       4.196290307388197      12.479205278665042
   175   3      6.4522329521637012     0.24082808163427366       10.28328234810845
   176   3      5.4530141841142399        6.37995042410369      11.905982248326335
   177   3     0.36196333622396665      8.1401150628472223      10.053381631619869
   178   3 -4.3599999999999992e-14      5.3207783573863692      1.3166483637921624
   179   3       8.740132197309876      0.2746606805166148      1.3166483637921624
   180   3      2.9133773991032776      0.2746606805166148      1.3166483637921624
   181   3      10.432657322409289      6.0232975134561082      3.3010724808649616
   182   3       7.519279923306013     0.97717983658635321      3.3010724808649616
   183   4   -0.040542860256358934      3.3326121499282149      6.7112339622672756
   184   4      5.8740920996116905       3.378405747211882      6.8285372386037348
   185   4      2.9133773991032776      1.6820392256232506      2.2987940834959804
   186   4 -4.3599999999999992e-14      6.7281569024930041      2.2987940834959804
   187   4      2.9307530134685322      8.4204707916027601      6.8325773231291382
   188   4       8.764377753234168      8.4124294994883311       6.789909970761669
   189   4      5.8267547982065553      6.7281569024930041      2.2987940834959804
   190   4       8.740132197309876      1.6820392256232506      2.2987940834959804
