(written by ASE)

190 atoms
4 atom types

0.0      11.653509596413199  xlo xhi
0.0        10.0922353537395  ylo yhi
0.0                      30  zlo zhi
                      0                       0                       0  xy xz yz

Atoms # atomic

     1   1      0.8398486137127732     0.45138732530789455      5.1707355281603897
     2   1      9.5747160281065451       5.539592012327927      5.0938217690400664
     3   1      10.855216998803327      3.3615703102741854      10.173153106898376
     4   1      3.7331257157590878      5.5259223239964532      5.1593124991180899
     5   1      8.7099613621227459      3.0593325701381917      12.354693732726783
     6   1      6.7036588664342176     0.48900621824511264      5.1970069642829575
     7   1      3.8764008019761844      2.7861824032176146      10.486523893582831
     8   1      2.0744074628817701      2.2651318417470483      8.1430355866882032
     9   1      5.1597290031249923      8.5918745917898338       11.13162136626902
    10   1      3.7546337913945762      4.5604180723228787                     0.5
    11   1      4.7895928019595848     0.62016244275510757      12.000697349341378
    12   1      6.6680111904978974      9.6065357491926271                     0.5
    13   1      3.0016267745082614      7.4529999778324649      9.5112887700785738
    14   1      3.2311344520310281      9.1999579955169501      11.242533936021006
    15   1     0.88584747765360128       3.978867822148024      11.127929116300974
    16   1      5.7548283755918419      5.7596585240275324      8.1680500244922811
    17   1   -0.052933880490950637      5.6354744412981912      8.3719075543181045
    18   1      1.1031649784980877      5.8407963734848689      12.675499759491244
    19   1      8.6863272093655972     0.61443808029718949      8.4497987606306886
    20   1      8.8743699371196545     0.19853583663972982       11.23077665998458
    21   1       2.798908199371815     0.73480574683255606      8.1223152159937957
    22   1      11.146181786193187      1.5383211269661725      11.411690606891982
    23   1      5.8579599523865884      2.9016488505543263      10.626811127638607
    24   1      6.6656747630207986      2.8797277837324504      3.8043095294545042
    25   1     0.83891996481419984      2.8797277837324504      3.8043095294545042
    26   1      9.5790521621241194       7.925845460602198      3.8043095294545042
    27   1 -4.3599999999999992e-14      3.3640784512465056      2.4321633756321481
    28   1      2.9385917919681042      1.7354210319600063      6.8198556583001606
    29   1      2.9049759690524017      4.0697339155389241      5.1542245688775248
    30   1       8.740132197309876      6.0175168859635022                     0.5
    31   1 -4.3599999999999992e-14     0.97139920909375399                     0.5
    32   1      5.8267547982065553     0.97139920909375399                     0.5
    33   1      5.0285003676611169      0.4992480801869964      5.1930958996940859
    34   1      6.9381506463770322      4.3296262027112657      10.212135968169978
    35   1      1.0778596299533729      2.3415654334753326      12.337046006912706
    36   1       8.740132197309876      9.3788974631443622      3.8043095294545042
    37   1     0.84125639229129867      9.6065357491926271                     0.5
    38   1      7.8883910021902208      5.5247434474587971      5.1632165123085905
    39   1      5.8267547982065553      3.3640784512465056      2.4321633756321481
    40   1      9.1095273668190728      8.5365050959627613      10.548864531068299
    41   1       8.740132197309876      8.4101961281162527      2.4321633756321481
    42   1      2.9133773991032776      8.4101961281162527      2.4321633756321481
    43   1      9.5813885896011737      4.5604180723228787                     0.5
    44   1      2.9133773991032776      9.3788974631443622      3.8043095294545042
    45   1      2.5699363466667315      5.6823117206127707      10.254931303489906
    46   1      7.9478034999846328      2.1480715040028731      8.4265258194561472
    47   1      11.172741417429799      8.6456515908430411       11.52983949928149
    48   1      5.0791417226664199      7.3082562403893618      8.1209178504767774
    49   1      7.0506575019371143       9.503449142505664      12.344649755375176
    50   1      10.719800731268789      7.0822383731487877      8.2307806755951933
    51   1      2.5716041435549331      1.1331420747865699      10.829624391893653
    52   1      2.0744574342890343       7.925845460602198      3.8043095294545042
    53   1      2.9133773991032785      5.0461176768697538       1.866758950346576
    54   1      5.8267547982065997                       0       1.866758950346576
    55   1  8.9999999999999983e-16                       0       1.866758950346576
    56   1      7.8988758050185357      4.5604180723228804                     0.5
    57   1      2.0721210068119365      4.5604180723228804                     0.5
    58   1      10.812253204121857      9.6065357491926289                     0.5
    59   1      2.9133773991032776      6.0175168859635022                     0.5
    60   1      10.812920283664782     0.45313547017286765      5.1628408400695616
    61   1      2.0516706398155526      5.5172455537222449      5.2199943131191251
    62   1      8.4424893297936752      5.3582464606861997      10.782798523947749
    63   1      8.7521875235664552      4.0793537993856726      5.1113773039693529
    64   1      8.7981775894441885      5.0257942711780226      6.4907119204780983
    65   1      2.9573010901749965      4.9939945169684501      6.5501210680735458
    66   1      5.8623841604116533    -0.02843384365010217      6.5532485752225096
    67   1   -0.019114332185992264   -0.057828646451719118      6.5306907214068595
    68   1      5.9364270575507465      6.7205678959108655      6.8057874682201529
    69   1      5.8332124005309414        6.92784438625793      10.985585668799358
    70   1   -0.033627126355302975      6.5071090721148366      6.9407478362780051
    71   1       8.656411978390782      1.5290826485665305      7.0551862506695837
    72   1      10.814589631598912      2.8797277837324491      3.8043095294545042
    73   1      7.1590223718936583     0.75888824991608261      10.929087205302237
    74   1 -4.3599999999999992e-14      4.3327797862746138      3.8043095294545042
    75   1      4.9854984059152576      9.6065357491926289                     0.5
    76   1      3.7522973639175206       7.925845460602198      3.8043095294545042
    77   1      8.7401321973098778      5.0461176768697538       1.866758950346576
    78   1      3.7525285208068153      2.1369258384461847      8.2043443932399764
    79   1      4.9260716432260114      5.5406100512160616      12.174094331760932
    80   1      9.6345342961762306      2.0061412760068422      8.3073655236625257
    81   1      1.0415608807222698      8.8732010911613397      10.284161215434658
    82   1     0.74756551717725306      7.1111240824261905      8.2888517739450442
    83   1      8.1927687871262282      7.9486792620289846      12.199850132035563
    84   1      6.7344398315458749      7.1229392031492562      8.2244149232440922
    85   1  -0.0014337946192269078      9.0894921470562444      5.1462964267244624
    86   1      5.8267547982065553      4.3327797862746138      3.8043095294545042
    87   1      5.8621189631319401      9.1282002902932948      5.1522540838128261
    88   1      7.9012122324956335       7.925845460602198      3.8043095294545042
    89   1      10.471262361398246      5.7822438858173726      11.704788465109299
    90   1      4.9878348333923119      2.8797277837324491      3.8043095294545042
    91   1      3.0233064286164839      4.8621872256169789      12.619020520709903
    92   2      2.9068342613080431      5.0312919901739104       5.522901344500073
    93   2      8.7493532297463119      5.0469841616303102      5.4636100917969985
    94   2      5.8267547982065997                       0     0.84163042435634416
    95   2   -0.069993121385760554       6.584561610341729      7.9667706719679163
    96   2      8.7290540852034013      1.5754907976608865       8.081186300178139
    97   2      8.7401321973098778      5.0461176768697538     0.84163042435634416
    98   2      2.9133773991032785      5.0461176768697538     0.84163042435634416
    99   2      5.8615059277170607  -0.0050956210378430627      5.5242064299845683
   100   2       8.740132197309876      8.4101961281162527      3.4593945362622507
   101   2       5.872974097450256      6.7245494484436952      7.8332456523055738
   102   2      2.8892397758207098      1.7175567568005545      7.8407546755497624
   103   2      5.8267547982065553      3.3640784512465056      3.4593945362622507
   104   2 -4.3599999999999992e-14      3.3640784512465056      3.4593945362622507
   105   2  -0.0011856408707371707   -0.038040341323596523      5.5020719704543986
   106   2  8.9999999999999983e-16                       0     0.84163042435634416
   107   2      2.9133773991032776      8.4101961281162527      3.4593945362622507
   108   3      10.303457692888983      3.9876065079953453        7.66048906267606
   109   3      2.9133773991032772      3.0917580036970467      3.3010724808649616
   110   3 -4.3599999999999992e-14      8.1378756805668004      3.3010724808649616
   111   3      5.8267547982065553      8.1378756805668004      3.3010724808649616
   112   3       4.132202971906807      2.3857284981765692      1.3166483637921624
   113   3      9.9589577701134058      2.3857284981765692      1.3166483637921624
   114   3      1.2188255728034858      7.4318461750463234      1.3166483637921624
   115   3      7.0455803710100851      7.4318461750463234      1.3166483637921624
   116   3      4.1630079469387677      9.1565339374253121      7.7691294582644206
   117   3        5.81771587840392      7.7580508930341026      10.411099944003372
   118   3      4.4879060908433743       9.083481398140874      11.791178275849029
   119   3      2.8981694209619522       7.118402221711909      7.9268551959688818
   120   3      4.6231782920866831       4.149620569275343      7.6122042429640207
   121   3      7.5797805036378731      9.1399177980890123      7.7054332983807363
   122   3      1.7270575439807225      9.2237844245930471      7.7797864702899053
   123   3      7.5386751853754479      7.7050645467821797      5.7455182418005188
   124   3      1.6981904326718815        7.69579359974807      5.8978293861766344
   125   3      8.7577406744805444      7.5247311962775072      11.525245267631568
   126   3      6.8502123861226458      3.0413251320520631      10.853166071575187
   127   3      2.0847956131463983      4.9108213591136094      9.9735802645737248
   128   3      10.904246883885031      9.1869512625614131      12.280072863655658
   129   3       4.134229673107142     0.97717983658635332      3.3010724808649616
   130   3       8.740132197309876      3.0917580036970467      3.3010724808649616
   131   3      4.6613008701952898      1.5494991040203312      12.204465512121727
   132   3      2.4066886861999133      9.6850932136170957      10.877267010859862
   133   3      5.8267547982065553      5.3207783573863692      1.3166483637921624
   134   3      9.1902946101075642       5.019480162562755      11.312322569795997
   135   3      5.9432380490393211      4.7204288159445138      5.7076379954050758
   136   3      11.355457921389087      4.1803347808779678      10.031804206114556
   137   3      8.7758083113976433      7.0355608307897217      7.7438434723137268
   138   3      1.6945518262997477      2.3857284981765683      1.3166483637921624
   139   3      9.9626906437667824      7.6607934047274435      5.7204955426756836
   140   3      9.9609844713137417     0.97717983658635332      3.3010724808649616
   141   3      7.0476070722104192      6.0232975134561082      3.3010724808649616
   142   3      10.052030322796902      9.1061582183633991      7.6244690937083064
   143   3      1.1554983410101058       3.973927813300457      7.6333633154296194
   144   3      7.0791161649856083      3.9615050070672035      7.7153258942503147
   145   3       2.939570293311295      9.8147982864111238      5.7604490242100255
   146   3      8.7613524163442964      9.8201396749516139       5.722519306892548
   147   3      4.6253792774881299      2.6400829196679618      5.7212262191794911
   148   3      10.367219452260398      2.5862141468224986       5.748426855485496
   149   3      4.6079292254030255      7.4318461750463234      1.3166483637921624
   150   3      1.6925251250994144     0.97717983658635321      3.3010724808649616
   151   3      10.539137871216482      1.8988769134813457      10.731324017599045
   152   3      8.3645271282124121     0.77230462025888036      11.865035077373268
   153   3           2.01005561252      5.8769174997655327      13.038169187874745
   154   3      7.1251236758832928      5.2927062598782522       10.00044976238047
   155   3     0.87003360705912447      1.3733546640829875      12.350540463216502
   156   3      3.1697994588954734      7.1922966402422635      10.431229263673714
   157   3      7.5213066245063471      2.3857284981765683      1.3166483637921624
   158   3      2.6216503315266508      2.0630426643727242      10.519312758282501
   159   3      10.434684023609625      7.4318461750463234      1.3166483637921624
   160   3      5.7446946980596927      1.9391310538042488      7.7367122476353316
   161   3   -0.034368248855991212      1.9130344582842631      7.6987563909073504
   162   3      1.2208522740038206      6.0232975134561082      3.3010724808649616
   163   3      7.0577294349487945       2.559436294501463      5.7710259189071849
   164   3      1.1313024675791419      2.6055672734716131      5.7288899190371225
   165   3       4.111482181951728      7.6690531038388841      5.8504385301652118
   166   3      4.6059025242026905      6.0232975134561082      3.3010724808649616
   167   3      7.0401858585309833      8.6909911203709509      12.864113794360408
   168   3      1.0872815571915937      3.7790602044925561      12.073184419697743
   169   3      9.3608234141057434      9.4190688030296617      10.171767808020071
   170   3      9.2085212284120388      3.1276772947220031      13.160415509397804
   171   3   -0.090457956637841633      4.7282652259615467      5.7636378184055719
   172   3      4.6694637920576918      3.1542124550935422      10.034466140792249
   173   3      11.277242495681525      6.1804494859676646      12.090388088109819
   174   3      3.8290188547554838      4.4789061646859398      12.237983390325992
   175   3      6.4348714359094199     0.26178014603231059      10.514334432701377
   176   3      5.7457745132499944       6.090343769993745      12.117387601166106
   177   3     0.34870648359155004        8.22696266562094      10.139151291009437
   178   3 -4.3599999999999992e-14      5.3207783573863692      1.3166483637921624
   179   3       8.740132197309876      0.2746606805166148      1.3166483637921624
   180   3      2.9133773991032776      0.2746606805166148      1.3166483637921624
   181   3      10.432657322409289      6.0232975134561082      3.3010724808649616
   182   3       7.519279923306013     0.97717983658635321      3.3010724808649616
   183   4   -0.084344778122354719      3.2954125984384159      6.7255604692220627
   184   4      5.8531536630763048      3.3268416315460461      6.7405924459550102
   185   4      2.9133773991032776      1.6820392256232506      2.2987940834959804
   186   4 -4.3599999999999992e-14      6.7281569024930041      2.2987940834959804
   187   4       2.925714205662465       8.468586613272592      6.8110308987627759
   188   4      8.7838956708882456      8.4144358954301062      6.7297503916601125
   189   4      5.8267547982065553      6.7281569024930041      2.2987940834959804
   190   4       8.740132197309876      1.6820392256232506      2.2987940834959804
