(written by ASE)

190 atoms
4 atom types

0.0      11.653509596413199  xlo xhi
0.0        10.0922353537395  ylo yhi
0.0                      30  zlo zhi
                      0                       0                       0  xy xz yz

Atoms # atomic

     1   1     0.83280231405202831     0.46322955592853043      5.1507822101607115
     2   1      9.5640639051540024      5.5347510733473451      5.0750672649900768
     3   1      10.985245306089713      3.2471929981898526      10.266692520485631
     4   1      3.7269943178876996      5.5269899116864334      5.1361887894574059
     5   1      8.8230110604082714      3.0627011169388565      12.500171340027393
     6   1      6.7036362943338803     0.48874907546409779      5.1771078197692795
     7   1      3.9620418688962902      2.6552733512026641      10.560486954296199
     8   1      2.1077030615403576      2.3311136080303667      8.1468318810169684
     9   1      5.0641364660041726      8.4866852684418337      11.157730206895462
    10   1      3.7546337913945762      4.5604180723228787                     0.5
    11   1      4.7957521139088728     0.66194202985349304      12.003893061999095
    12   1      6.6680111904978974      9.6065357491926271                     0.5
    13   1      3.0543825659211463      7.2185128146351429      9.3132136861065113
    14   1       3.241321913984029      9.3640199181066368      11.202843647226905
    15   1     0.88811327959589881      4.0461579838933428      11.192266364307576
    16   1      5.7383370217756076      5.7656207950085143      8.1733978979267299
    17   1   -0.053974785574101902      5.6212134778553482      8.4311276081227309
    18   1      1.0631709023519536      5.8397959876629004      12.755915285578261
    19   1      8.6470536258027995     0.61322014237787126      8.4629673353761099
    20   1      8.9355128645836572      0.2413196798750801      11.252746681840534
    21   1      2.7645649855190344      0.7831846815406901      8.1241611825714468
    22   1      11.289203641695252      1.5724565460439415       11.38555236562757
    23   1      5.9274519369971044      2.9806459449454232       10.59963756843012
    24   1      6.6656747630207986      2.8797277837324504      3.8043095294545042
    25   1     0.83891996481419984      2.8797277837324504      3.8043095294545042
    26   1      9.5790521621241194       7.925845460602198      3.8043095294545042
    27   1 -4.3599999999999992e-14      3.3640784512465056      2.4321633756321481
    28   1      2.9290178142365848      1.7778858253212404      6.8093495700605136
    29   1      2.8945287099818859      4.0674582481056865      5.1099418616266563
    30   1       8.740132197309876      6.0175168859635022                     0.5
    31   1 -4.3599999999999992e-14     0.97139920909375399                     0.5
    32   1      5.8267547982065553     0.97139920909375399                     0.5
    33   1      5.0283720465465693     0.49734316715669991      5.1674378360809472
    34   1      7.0448841932013551      4.3768762990608368      10.303961367476484
    35   1     0.97111118066511637      2.4104897521238264      12.377704237958081
    36   1       8.740132197309876      9.3788974631443622      3.8043095294545042
    37   1     0.84125639229129867      9.6065357491926271                     0.5
    38   1      7.8865785726753419      5.5024311381367079       5.154494668649277
    39   1      5.8267547982065553      3.3640784512465056      2.4321633756321481
    40   1      9.1449618580063934      8.5905362918358623      10.626572972338817
    41   1       8.740132197309876      8.4101961281162527      2.4321633756321481
    42   1      2.9133773991032776      8.4101961281162527      2.4321633756321481
    43   1      9.5813885896011737      4.5604180723228787                     0.5
    44   1      2.9133773991032776      9.3788974631443622      3.8043095294545042
    45   1      2.5955385037338918        5.69215042031996      10.287085082888488
    46   1      7.9653961685388879      2.1675334911199564      8.4352383633377279
    47   1      11.324804511258868      8.7047184776906867      11.709272305157109
    48   1      5.1447680107834106      7.3558724182471185      8.1241960142993364
    49   1      7.1646579339725447       9.633907376503581      12.502697966435919
    50   1      10.686434137366119      7.0338556256478393      8.2259429000500592
    51   1      2.4147108095451406      1.1257180240448814      10.885316245059551
    52   1      2.0744574342890343       7.925845460602198      3.8043095294545042
    53   1      2.9133773991032785      5.0461176768697538       1.866758950346576
    54   1      5.8267547982065997                       0       1.866758950346576
    55   1  8.9999999999999983e-16                       0       1.866758950346576
    56   1      7.8988758050185357      4.5604180723228804                     0.5
    57   1      2.0721210068119365      4.5604180723228804                     0.5
    58   1      10.812253204121857      9.6065357491926289                     0.5
    59   1      2.9133773991032776      6.0175168859635022                     0.5
    60   1      10.815999189481071      0.4545521392375208      5.1303537740439911
    61   1      2.0478653759001664      5.5130846496201835      5.2226962583546701
    62   1      8.4872350896348276      5.3337576964780054      10.759356620514815
    63   1      8.7468169528300166      4.0638214285870164      5.0925722785252683
    64   1      8.8073572542649519       5.002688886638671        6.48029012619262
    65   1      2.9661422835394875      4.9555365816147452      6.5259394612182895
    66   1      5.8624298538420776   -0.033755562976868644      6.5305118292930828
    67   1   -0.031840525308223663   -0.058595436427240764      6.5026407252748974
    68   1      5.9668310891403378      6.7182708740329184      6.8337836189016956
    69   1      5.7168760955114619      6.8414701075091173      11.166497189363758
    70   1   -0.044358459957925367      6.4495329493691456      6.9574472590649394
    71   1      8.6338596586233791      1.5143005291146603      7.0591198259383265
    72   1      10.814589631598912      2.8797277837324491      3.8043095294545042
    73   1      7.0958298383349305     0.70283418988310498      10.947697738273613
    74   1 -4.3599999999999992e-14      4.3327797862746138      3.8043095294545042
    75   1      4.9854984059152576      9.6065357491926289                     0.5
    76   1      3.7522973639175206       7.925845460602198      3.8043095294545042
    77   1      8.7401321973098778      5.0461176768697538       1.866758950346576
    78   1      3.7961373136098961      2.1155945422580853      8.1908629789057041
    79   1      4.8732764702928533      5.3887323413852819      12.245329824357798
    80   1      9.6466392529203553      1.9650928611080296      8.3067354237461988
    81   1      1.1469957310663983      8.9038512134768961      10.237363011227204
    82   1     0.70434363137277067      7.1165747381407236       8.298353839911039
    83   1      8.0959801616217941      7.9014405534631775      12.112916420693256
    84   1      6.8131562072370846       7.075233992975031      8.2272831526266277
    85   1  -0.0069080658034803054       9.088444193299642      5.1123276475566879
    86   1      5.8267547982065553      4.3327797862746138      3.8043095294545042
    87   1      5.8650649435145539      9.1285851569206944      5.1251968437590936
    88   1      7.9012122324956335       7.925845460602198      3.8043095294545042
    89   1      10.479536407025574      5.7229174768961375      11.820104432330986
    90   1      4.9878348333923119      2.8797277837324491      3.8043095294545042
    91   1      2.9863368742081198      5.1168328420995648      12.675584541313798
    92   2      2.9071491777858727      5.0208775408640545      5.5008093087839605
    93   2      8.7499852388066799      5.0288272224218096      5.4529690173099388
    94   2      5.8267547982065997                       0     0.84163042435634416
    95   2   -0.089464251237195064      6.5518078003479587      7.9832908789362271
    96   2      8.7228403648474391      1.5678380879545248       8.083774540891616
    97   2      8.7401321973098778      5.0461176768697538     0.84163042435634416
    98   2      2.9133773991032785      5.0461176768697538     0.84163042435634416
    99   2      5.8610571788377053  -0.0066210456842657733      5.5014406661904287
   100   2       8.740132197309876      8.4101961281162527      3.4593945362622507
   101   2      5.9143086194656593      6.7290278145064502      7.8588888972885576
   102   2      2.9008158650531355      1.7567562074791965       7.833388838671671
   103   2      5.8267547982065553      3.3640784512465056      3.4593945362622507
   104   2 -4.3599999999999992e-14      3.3640784512465056      3.4593945362622507
   105   2  -0.0033103852612309265   -0.040476543313585869      5.4741852875754571
   106   2  8.9999999999999983e-16                       0     0.84163042435634416
   107   2      2.9133773991032776      8.4101961281162527      3.4593945362622507
   108   3      10.336934422979013      3.9667331308501379      7.6892058896218636
   109   3      2.9133773991032772      3.0917580036970467      3.3010724808649616
   110   3 -4.3599999999999992e-14      8.1378756805668004      3.3010724808649616
   111   3      5.8267547982065553      8.1378756805668004      3.3010724808649616
   112   3       4.132202971906807      2.3857284981765692      1.3166483637921624
   113   3      9.9589577701134058      2.3857284981765692      1.3166483637921624
   114   3      1.2188255728034858      7.4318461750463234      1.3166483637921624
   115   3      7.0455803710100851      7.4318461750463234      1.3166483637921624
   116   3      4.1591385801244387      9.1585158051116338      7.7777810780330707
   117   3      5.7733129993115231      7.6340745798720437      10.511109835747362
   118   3      4.4434138454630228      9.0819462620619991      11.771650326961314
   119   3      2.8823172982145739      7.1021036065456995      7.9569522208126688
   120   3      4.6447316572110973      4.1313176680818255      7.6357036491686534
   121   3      7.5815660792219211      9.1168317711518316       7.733650459224152
   122   3      1.7376719637627713      9.2502445061665579      7.8112468562067185
   123   3      7.5400084227010113      7.7009317454254047       5.779285384045151
   124   3      1.6866288082124201      7.7102979376874403      5.9291245235977197
   125   3      8.7019838846225372      7.4994579731999078      11.462281065412023
   126   3      6.9230102709101375        3.11510235875323      10.789336258250032
   127   3      2.1094853031644329      4.9358317529470943      9.9464233659512651
   128   3      10.815842063466043      9.1843610223737855      12.375798882807292
   129   3       4.134229673107142     0.97717983658635332      3.3010724808649616
   130   3       8.740132197309876      3.0917580036970467      3.3010724808649616
   131   3      4.6295591192912449      1.5620465543678974      12.286284479759589
   132   3      2.3609599371950027      9.7807875095036003      10.898846184474101
   133   3      5.8267547982065553      5.3207783573863692      1.3166483637921624
   134   3      9.2786588735286006       5.011489315781037      11.254665075705331
   135   3      5.9207842010799441      4.7264059420366706      5.7201356886585444
   136   3      11.463316953618829      4.0961822320755221      10.115018941005864
   137   3      8.7772720326560645      7.0134386727731135      7.7583388478211006
   138   3      1.6945518262997477      2.3857284981765683      1.3166483637921624
   139   3      9.9623413361967881      7.6583789859199438      5.7298865237144954
   140   3      9.9609844713137417     0.97717983658635332      3.3010724808649616
   141   3      7.0476070722104192      6.0232975134561082      3.3010724808649616
   142   3      10.056526574037797       9.093947558632701      7.6423177794822381
   143   3      1.1379804742426416      3.9881571309046526      7.6565062001455271
   144   3      7.0859410362031614      3.9465539646915748      7.7083251359132898
   145   3      2.9305501720132376       9.838035480169987      5.7800128275022624
   146   3      8.7615052644370977      9.8220290171854394       5.746621708406872
   147   3      4.5838757193146966      2.6561535531900562      5.7271157846170206
   148   3      10.381305256834105      2.5628639179394455      5.7221674076630391
   149   3      4.6079292254030255      7.4318461750463234      1.3166483637921624
   150   3      1.6925251250994144     0.97717983658635321      3.3010724808649616
   151   3      10.568725557562326      1.9067786534988282      10.755355244896242
   152   3      8.3609092783860586     0.76193352150762328      11.884484372016002
   153   3      1.9550892349549231      5.9809395095721634      13.143450063695839
   154   3      7.2121808556634841      5.3265659017965756       10.01755258550288
   155   3     0.68706466159560031      1.4498233186685372      12.270937339334694
   156   3        3.09733095608276      7.1913126597146482      10.316193742439463
   157   3      7.5213066245063471      2.3857284981765683      1.3166483637921624
   158   3        2.57524300294852      2.0347659674593417      10.540262530799845
   159   3      10.434684023609625      7.4318461750463234      1.3166483637921624
   160   3      5.7448849243621627      1.9263278368860604      7.7106320986832237
   161   3   -0.087762890028180246      1.8937747305161157       7.728080273294669
   162   3      1.2208522740038206      6.0232975134561082      3.3010724808649616
   163   3      7.0353782119687853      2.5511650312947274      5.7435380800582641
   164   3      1.1324045892422059      2.5757160859491539      5.7160539053585078
   165   3      4.0821703710375452      7.6663465619882203      5.9011530325076178
   166   3      4.6059025242026905      6.0232975134561082      3.3010724808649616
   167   3      7.1105492006391628      8.7714299333276919      12.924033944210043
   168   3      1.1253719429667219      3.7794255746727949      12.128809807902018
   169   3      9.2504395932495473      9.4598089146657269      10.159265585595023
   170   3      9.1403860423980881      3.0840888643302233      13.392129422723587
   171   3   -0.069802839611777356      4.7126461674713589      5.7384741524303005
   172   3      4.6904232167860265      3.1375223292868313      10.112063919538555
   173   3      11.264553260231025      6.1802417538696153      12.185969085240984
   174   3      3.7986435196270407      4.6410944137774406      12.366002065833518
   175   3      6.3204227965153539     0.30779124010027237       10.52679337935828
   176   3      5.6861288457487209      5.9968371161414709      12.167120007787721
   177   3      0.3953598255709686      8.3065442661433782      10.187358972267873
   178   3 -4.3599999999999992e-14      5.3207783573863692      1.3166483637921624
   179   3       8.740132197309876      0.2746606805166148      1.3166483637921624
   180   3      2.9133773991032776      0.2746606805166148      1.3166483637921624
   181   3      10.432657322409289      6.0232975134561082      3.3010724808649616
   182   3       7.519279923306013     0.97717983658635321      3.3010724808649616
   183   4   -0.080288212771425185      3.2769381435386435      6.7294849845967342
   184   4      5.8503531844546286      3.3215388465558475      6.7316523159084456
   185   4      2.9133773991032776      1.6820392256232506      2.2987940834959804
   186   4 -4.3599999999999992e-14      6.7281569024930041      2.2987940834959804
   187   4      2.9096659638011917      8.4937910472579095      6.8319923438341608
   188   4      8.7879457451194636      8.4094336593882133      6.7530482955568907
   189   4      5.8267547982065553      6.7281569024930041      2.2987940834959804
   190   4       8.740132197309876      1.6820392256232506      2.2987940834959804
