(written by ASE)

190 atoms
4 atom types

0.0      11.653509596413199  xlo xhi
0.0        10.0922353537395  ylo yhi
0.0                      30  zlo zhi
                      0                       0                       0  xy xz yz

Atoms # atomic

     1   1     0.84083765533940347     0.48680291273604631      5.2213516006313743
     2   1       9.582499056303595      5.5320877490425202      5.2200403454427109
     3   1      10.673117146423595      3.4761817434754718      10.368638915265675
     4   1      3.7535714139159597      5.5332351043664723      5.2201199965317082
     5   1      8.2178623625438654      2.8785107253512243      11.615386424894416
     6   1      6.6686739416083602     0.48482596029065195      5.2191937033555647
     7   1      2.7779923241694777      2.9762771701185589      10.385916422001062
     8   1      2.0972997428385005      2.1449853052938885      8.3775341223661925
     9   1      4.9708319235312501      9.1047834595153656      10.802356070029203
    10   1      3.7546337913945762      4.5604180723228787                     0.5
    11   1      5.0936898873016236     0.72622615428630144      11.699219680412881
    12   1      6.6680111904978974      9.6065357491926271                     0.5
    13   1      3.8048088092321604      7.5440224851671811       10.40100777973503
    14   1      2.9031845481341239      9.0689521440028802      11.571371482608614
    15   1     0.91965063861189955      3.7727361716180305      10.798971661263263
    16   1      5.8054412959318604      5.7418417900020255      8.3260593950329014
    17   1  8.8667723689263406e-05      5.7425298711142174      8.3945916240802294
    18   1     0.93002644538939439      5.8747806132893832      11.504064564907242
    19   1      8.7405827545590533      0.6905537677952498      8.4033487798613269
    20   1      8.8734979745318299     0.93856297830088431      10.848607133030189
    21   1       2.878211132090239     0.73231238181100822      8.3861842302690413
    22   1      10.682161505126325      1.8978921390280321      11.479949796176081
    23   1      5.9049316397765095      2.8735192759665131      10.473930608426611
    24   1      6.6656747630207986      2.8797277837324504      3.8043095294545042
    25   1     0.83891996481419984      2.8797277837324504      3.8043095294545042
    26   1      9.5790521621241194       7.925845460602198      3.8043095294545042
    27   1 -4.3599999999999992e-14      3.3640784512465056      2.4321633756321481
    28   1      2.9136107307505941      1.6903564271180447      6.9643853997605918
    29   1       2.911633952130102       4.073604478569778       5.222090167798223
    30   1       8.740132197309876      6.0175168859635022                     0.5
    31   1 -4.3599999999999992e-14     0.97139920909375399                     0.5
    32   1      5.8267547982065553     0.97139920909375399                     0.5
    33   1      4.9839755644139254     0.48519999775198902      5.2203297438264844
    34   1      6.7580049197380836      4.6714183974298598      10.342789317663875
    35   1      1.2045685255253549      1.8356175190326387      11.670915271228056
    36   1       8.740132197309876      9.3788974631443622      3.8043095294545042
    37   1     0.84125639229129867      9.6065357491926271                     0.5
    38   1      7.8990008622379388      5.5328447186107512       5.218678905287284
    39   1      5.8267547982065553      3.3640784512465056      2.4321633756321481
    40   1      8.9115132385868758      9.1393823008347894      11.180463150569031
    41   1       8.740132197309876      8.4101961281162527      2.4321633756321481
    42   1      2.9133773991032776      8.4101961281162527      2.4321633756321481
    43   1      9.5813885896011737      4.5604180723228787                     0.5
    44   1      2.9133773991032776      9.3788974631443622      3.8043095294545042
    45   1      2.9754747839890392      5.8231150163132845      10.465010693934977
    46   1      7.8992940885222263      2.1726589387249784      8.3940504796127264
    47   1      10.778644952315981      8.3965154177791685      10.804899384096707
    48   1      5.0042366708240733      7.2160467935721213      8.3510821464227032
    49   1      7.0149627680977868      9.1125156947292592      10.927395153844859
    50   1      10.814932196404129      7.2337025597215394      8.3760500152302342
    51   1      3.4815480214017569       1.049388449400078      10.445463984834097
    52   1      2.0744574342890343       7.925845460602198      3.8043095294545042
    53   1      2.9133773991032785      5.0461176768697538       1.866758950346576
    54   1      5.8267547982065997                       0       1.866758950346576
    55   1  8.9999999999999983e-16                       0       1.866758950346576
    56   1      7.8988758050185357      4.5604180723228804                     0.5
    57   1      2.0721210068119365      4.5604180723228804                     0.5
    58   1      10.812253204121857      9.6065357491926289                     0.5
    59   1      2.9133773991032776      6.0175168859635022                     0.5
    60   1      10.813535517644569     0.48578205513708617      5.2200484415300803
    61   1       2.071228616377677      5.5320350636974558      5.2209363745261816
    62   1      8.6476238043795419      5.4709825527730587      10.724293674700711
    63   1      8.7426423472186769      4.0738055695430369      5.2197571564761107
    64   1      8.7457620924071762      5.0456997821117771      6.5867564657741031
    65   1      2.9103703930657394      5.0452705661328388      6.5903129089418213
    66   1       5.827454811325369   -4.26510756648316e-06      6.5895227392997926
    67   1 -0.00010355422706838083 -6.2824452089365733e-05      6.5925329036818061
    68   1      5.8258379066068215      6.7118767569491062      6.9802411768093684
    69   1      6.6010288557419079      6.7604354369399999      10.505853255937708
    70   1  -0.0027198663565857939      6.7217425269429905      7.0441060927374419
    71   1      8.7429193503300233      1.6863710646273813      7.0495915651561649
    72   1      10.814589631598912      2.8797277837324491      3.8043095294545042
    73   1      7.0277879815496895      1.0819105101822262       11.44583580574662
    74   1 -4.3599999999999992e-14      4.3327797862746138      3.8043095294545042
    75   1      4.9854984059152576      9.6065357491926289                     0.5
    76   1      3.7522973639175206       7.925845460602198      3.8043095294545042
    77   1      8.7401321973098778      5.0461176768697538       1.866758950346576
    78   1      3.7264210173824521      2.1694450624328487      8.3872435154092972
    79   1       4.966538235114017      5.6772188225977605      10.720548057712415
    80   1      9.5942038240415126      2.1641773711546555      8.4005201143775228
    81   1     0.89471011036071935      8.3279335609656044      11.218537373416725
    82   1     0.84157311179171834      7.2150062236543713      8.4219661045781553
    83   1      7.9337538704136907      7.2878990800040944      11.635723527569009
    84   1      6.6495113612662111      7.2131408898747287      8.3591950187959618
    85   1  0.00024445507999016009      9.1216239899915958      5.2196706590235387
    86   1      5.8267547982065553      4.3327797862746138      3.8043095294545042
    87   1      5.8268584429926316      9.1212791655072056      5.2195911064249021
    88   1      7.9012122324956335       7.925845460602198      3.8043095294545042
    89   1      10.720762203389407      6.1881346553725143      10.898934945524182
    90   1      4.9878348333923119      2.8797277837324491      3.8043095294545042
    91   1      3.7852339504620787      4.4777911126211682      11.674043129453421
    92   2      2.9135690631856233      5.0457410541424652      5.5611112044130913
    93   2      8.7401438965305758      5.0460066049548491      5.5587026937574775
    94   2      5.8267547982065997                       0     0.84163042435634416
    95   2   0.0024214331583336433      6.7247242824357318      8.0740948778133603
    96   2      8.7436937071349465      1.6750182259239268      8.0819458026376356
    97   2      8.7401321973098778      5.0461176768697538     0.84163042435634416
    98   2      2.9133773991032785      5.0461176768697538     0.84163042435634416
    99   2      5.8262691360743082   0.0010657079337201677      5.5603538063451161
   100   2       8.740132197309876      8.4101961281162527      3.4593945362622507
   101   2      5.8241887363979448      6.7076674052137371      7.9871062752422066
   102   2      2.9196051808856223      1.6749055777747026      7.9646553950670729
   103   2      5.8267547982065553      3.3640784512465056      3.4593945362622507
   104   2 -4.3599999999999992e-14      3.3640784512465056      3.4593945362622507
   105   2  0.00078606177626544592  1.7875223540179335e-05      5.5625515933091698
   106   2  8.9999999999999983e-16                       0     0.84163042435634416
   107   2      2.9133773991032776      8.4101961281162527      3.4593945362622507
   108   3      10.434691204876115      4.0526508806883088      7.7954713947443208
   109   3      2.9133773991032772      3.0917580036970467      3.3010724808649616
   110   3 -4.3599999999999992e-14      8.1378756805668004      3.3010724808649616
   111   3      5.8267547982065553      8.1378756805668004      3.3010724808649616
   112   3       4.132202971906807      2.3857284981765692      1.3166483637921624
   113   3      9.9589577701134058      2.3857284981765692      1.3166483637921624
   114   3      1.2188255728034858      7.4318461750463234      1.3166483637921624
   115   3      7.0455803710100851      7.4318461750463234      1.3166483637921624
   116   3      4.1465048633324741      9.0923023448041835      7.9291682579009288
   117   3      6.1677828942725483       7.470867560965984      9.9857183498494209
   118   3      4.7891454677088152      9.4108015806573757      11.687905467380993
   119   3      2.9366809352573355      7.0076150789827931      7.9261481281197463
   120   3      4.6531846803536929       4.085716633040132      7.8994444878452788
   121   3      7.5145197688441305      9.1043781468433274      7.8973856205390476
   122   3      1.7050631709879855      9.1066381027906722      7.8791930148000668
   123   3      7.5237139046840316      7.7039564752167156       5.921076346900974
   124   3       1.692774752111091      7.6944828029704846       5.913343075660543
   125   3      8.8984393768467189      7.3787627182381224      11.720657150411645
   126   3      6.7226303930302729      2.9497988828021344      10.981023089964886
   127   3      2.6288826180154699      5.0087695025055856       10.03750478449567
   128   3      10.892479054073418      8.6575365780478233      11.726889186425014
   129   3       4.134229673107142     0.97717983658635332      3.3010724808649616
   130   3       8.740132197309876      3.0917580036970467      3.3010724808649616
   131   3      4.5600041417018824      1.5102667329301938       11.98750493922025
   132   3      2.7769700321666226      9.0821561243238094      10.639862831009539
   133   3      5.8267547982065553      5.3207783573863692      1.3166483637921624
   134   3      8.7682906189283738      5.2605884091798538       11.63365927856575
   135   3      5.8337396252803462       4.775319306241558      5.9156252439751498
   136   3      10.512673629567182      4.2980879949045274      9.8637885194311004
   137   3      8.7322374865227914      6.9949268988555851      7.9230681061058208
   138   3      1.6945518262997477      2.3857284981765683      1.3166483637921624
   139   3      9.9580834132000415      7.7014840090246741      5.9142443145933656
   140   3      9.9609844713137417     0.97717983658635332      3.3010724808649616
   141   3      7.0476070722104192      6.0232975134561082      3.3010724808649616
   142   3      9.9635406673023628       9.107858475474341      7.8832194841625496
   143   3      1.2067477134284121      4.0600060730134624      7.9002575016074239
   144   3      7.0371479879425776      4.0821300342996683       7.955363200242231
   145   3      2.9214433113290501       9.821269074460611      5.9106874568158068
   146   3      8.7361329095228868      9.8230321359014621      5.9132411224516934
   147   3      4.6051430980151622      2.6555425101650876      5.9116888017717093
   148   3      10.430916916241815      2.6480720372534883      5.9028568097550975
   149   3      4.6079292254030255      7.4318461750463234      1.3166483637921624
   150   3      1.6925251250994144     0.97717983658635321      3.3010724808649616
   151   3      10.848163346592729      1.8463027789802233      10.533581852052247
   152   3      8.7700740256472436     0.79337294205805231      11.785043491665435
   153   3      1.6149115771331655      6.3745096951568332      11.975530197556559
   154   3       6.777113597889449      5.0847965687796099      11.209043053355325
   155   3     0.89470505238178577     0.98826758577640406      11.990724920150377
   156   3      3.4192196571227487      7.1400378549136923      11.170866235768186
   157   3      7.5213066245063471      2.3857284981765683      1.3166483637921624
   158   3      2.5647161045526148      1.1096893874576816      10.195261302566683
   159   3      10.434684023609625      7.4318461750463234      1.3166483637921624
   160   3      5.8283325276077003      1.9738176731420987       7.921474830531511
   161   3     0.00443160737018639      1.9641070284782332      7.9009506575660522
   162   3      1.2208522740038206      6.0232975134561082      3.3010724808649616
   163   3       7.046834352306762       2.664527540321683      5.9273697574869706
   164   3      1.2198445701434419      2.6611280445953294      5.9129047960081627
   165   3      4.1292308959060691      7.7097992883840956      5.9286650147581934
   166   3      4.6059025242026905      6.0232975134561082      3.3010724808649616
   167   3      7.2300739863738883      8.8900126084438309      11.829755878532799
   168   3      1.1018607930172486      3.5854812394070379      11.719318115403103
   169   3      8.8909670233175078      9.1875928879132367      10.207104451999497
   170   3      9.1249271623673582      3.0431836067696083      11.880800922525705
   171   3    0.006398744451962683      4.7764810580568362      5.9076749491152309
   172   3      3.6045241176081104      3.0207924846457814      9.8888153338324436
   173   3      11.220612269885097      5.9810586845972464      11.672260621527283
   174   3      4.5440518555599034      4.0123453107228846       12.02879174839725
   175   3      6.8412515907903506     0.71023717938438846      10.575950749092444
   176   3      5.1116200818253574      6.1040278855869596      11.574617668815286
   177   3     0.76248180896243845      8.1607250950000196      10.280463421899688
   178   3 -4.3599999999999992e-14      5.3207783573863692      1.3166483637921624
   179   3       8.740132197309876      0.2746606805166148      1.3166483637921624
   180   3      2.9133773991032776      0.2746606805166148      1.3166483637921624
   181   3      10.432657322409289      6.0232975134561082      3.3010724808649616
   182   3       7.519279923306013     0.97717983658635321      3.3010724808649616
   183   4  -0.0045685561634050157      3.3636906731012037      6.9117028314702287
   184   4      5.8130948367352309      3.3658451654828565      6.9035773144603496
   185   4      2.9133773991032776      1.6820392256232506      2.2987940834959804
   186   4 -4.3599999999999992e-14      6.7281569024930041      2.2987940834959804
   187   4       2.903258852342792      8.4148060749244102      6.9193788058022543
   188   4      8.7422733435139133      8.4144504192411471      6.9286772274041519
   189   4      5.8267547982065553      6.7281569024930041      2.2987940834959804
   190   4       8.740132197309876      1.6820392256232506      2.2987940834959804
