(written by ASE)

190 atoms
4 atom types

0.0      11.653509596413199  xlo xhi
0.0        10.0922353537395  ylo yhi
0.0                      30  zlo zhi
                      0                       0                       0  xy xz yz

Atoms # atomic

     1   1     0.83545782853263573     0.48398628855227216      5.2188467124677569
     2   1      9.5859891166575579       5.545406738208797      5.1995874203511656
     3   1      10.600792294966279      3.5967183344799731        10.2545643173044
     4   1      3.7482041855955037      5.5324101370449812      5.2254504779089874
     5   1      8.3936058023891356      3.1356956641259219      11.862534970295915
     6   1      6.6740054512261979     0.48134024156310656      5.2222970447734012
     7   1      3.3253071823370055       3.049092075222827      10.317503019307299
     8   1       1.975027082372196      2.1417935285304557      8.0381943945891177
     9   1      5.2105289261418992      8.8672970390056598      10.990915912684811
    10   1      3.7546337913945762      4.5604180723228787                     0.5
    11   1      4.8357421741178452     0.71147657446653811      12.108105683510116
    12   1      6.6680111904978974      9.6065357491926271                     0.5
    13   1      3.4026169082422077      7.7228113412647295      10.164128181178807
    14   1      2.8929117825736954      9.0612537345157733      11.356473239327505
    15   1     0.79601266981512742      4.0156307906462665      10.926151215687081
    16   1      5.7528453353415783      5.6878519079533509      8.0395118388904354
    17   1   -0.034509493114551065      5.7084503455698909      8.3936577257410843
    18   1      1.1360360238118583      6.1664063079640794      12.300876023904225
    19   1       8.749096828494622     0.68425783762815207      8.4246276198044558
    20   1      9.1144573983844808     0.62833023202164795      11.234002354726737
    21   1      2.8561707604690429     0.67222155409962114      8.0585139677923614
    22   1      10.687507705379746      1.6021800208194339      11.347526042916186
    23   1       5.885780399669283      2.6247321209515553      10.922023627678847
    24   1      6.6656747630207986      2.8797277837324504      3.8043095294545042
    25   1     0.83891996481419984      2.8797277837324504      3.8043095294545042
    26   1      9.5790521621241194       7.925845460602198      3.8043095294545042
    27   1 -4.3599999999999992e-14      3.3640784512465056      2.4321633756321481
    28   1       2.906082687195048      1.6617043894223433      6.7718652351970343
    29   1      2.9080264338817816      4.0771336659978799      5.2295312535722953
    30   1       8.740132197309876      6.0175168859635022                     0.5
    31   1 -4.3599999999999992e-14     0.97139920909375399                     0.5
    32   1      5.8267547982065553     0.97139920909375399                     0.5
    33   1      4.9908108982022128      0.4848859997107498      5.2215927744658028
    34   1      6.8826508291813617      4.3587633758577571      10.007512814732896
    35   1       1.118451603665074      1.6233871322444802      12.007525252854947
    36   1       8.740132197309876      9.3788974631443622      3.8043095294545042
    37   1     0.84125639229129867      9.6065357491926271                     0.5
    38   1      7.9011039296826215      5.5344777050470908      5.1960933066022275
    39   1      5.8267547982065553      3.3640784512465056      2.4321633756321481
    40   1      8.9384133216834503      8.8104807939689582      10.686978013349819
    41   1       8.740132197309876      8.4101961281162527      2.4321633756321481
    42   1      2.9133773991032776      8.4101961281162527      2.4321633756321481
    43   1      9.5813885896011737      4.5604180723228787                     0.5
    44   1      2.9133773991032776      9.3788974631443622      3.8043095294545042
    45   1      2.5371453548150185      5.8849436791052812      10.386714170251276
    46   1      7.9037542458406111      2.1495481465211634      8.3972876473764106
    47   1      10.781116525042007      8.7378463384212015      11.269783575869262
    48   1      4.9090455521029934      7.1671587796906255      8.0115906627149744
    49   1      7.0089111440487901      9.1566976897714252      11.618996763513767
    50   1        10.8102232836158      7.1888309598246938      8.3215809031847847
    51   1      3.0432639614886043      1.1480708875552892       10.93692245125642
    52   1      2.0744574342890343       7.925845460602198      3.8043095294545042
    53   1      2.9133773991032785      5.0461176768697538       1.866758950346576
    54   1      5.8267547982065997                       0       1.866758950346576
    55   1  8.9999999999999983e-16                       0       1.866758950346576
    56   1      7.8988758050185357      4.5604180723228804                     0.5
    57   1      2.0721210068119365      4.5604180723228804                     0.5
    58   1      10.812253204121857      9.6065357491926289                     0.5
    59   1      2.9133773991032776      6.0175168859635022                     0.5
    60   1      10.821935936591213     0.48877758668840576      5.2289384500200917
    61   1      2.0638685120369398      5.5261311306924519      5.2289652158722344
    62   1      8.5395380053812335      5.4897364086626785      11.011792140067413
    63   1       8.743545613888319      4.0806618500504728      5.2064870883249048
    64   1      8.7772281192617942        5.03879995472197      6.5649812237063578
    65   1      2.9115980183799919      5.0457510132069805       6.600656295078001
    66   1      5.8380136833306642   -0.011262998466237201      6.5921857539207682
    67   1  -0.0047412980485252608   -0.016133936668909422      6.5944111827212781
    68   1      5.7898759140561173      6.6627419844657245      6.7709713219462575
    69   1      6.1144328452199224      7.0029985379373008      10.659337941997146
    70   1    0.039971824728181123      6.6642090072924871      6.9757623992615923
    71   1      8.7499930140084068      1.6338322958373905      7.0540375933967399
    72   1      10.814589631598912      2.8797277837324491      3.8043095294545042
    73   1      7.0138413514577724     0.81970973801673797      10.848898606769467
    74   1 -4.3599999999999992e-14      4.3327797862746138      3.8043095294545042
    75   1      4.9854984059152576      9.6065357491926289                     0.5
    76   1      3.7522973639175206       7.925845460602198      3.8043095294545042
    77   1      8.7401321973098778      5.0461176768697538       1.866758950346576
    78   1      3.7431797890758216      2.1305939109056995      8.1064515000298876
    79   1      4.8455252124848061      5.6561976392249269      11.603140738758265
    80   1      9.6236720712652719      2.1178161931149266      8.3895312156441797
    81   1     0.96268154283414242      8.3464433367411548      10.720798209200963
    82   1     0.80857330179654852      7.1400863499572207      8.3696627086009894
    83   1      8.0782679759696929      7.6289102314255945      11.920498498820027
    84   1      6.6969399323392409      7.1344762654794929      8.0577991791166976
    85   1   -0.001490215497663736      9.1101668782189336      5.2251147737896648
    86   1      5.8267547982065553      4.3327797862746138      3.8043095294545042
    87   1      5.8281737176282435      9.1223338072448179      5.2125376569445576
    88   1      7.9012122324956335       7.925845460602198      3.8043095294545042
    89   1      10.505386431144446      5.6771103172366466      11.349770715977749
    90   1      4.9878348333923119      2.8797277837324491      3.8043095294545042
    91   1      3.6172682403659171      4.5138175196689492       11.83193832437237
    92   2      2.9094730140696354      5.0482194269515785      5.5712784987247446
    93   2      8.7467091536242147      5.0546897565230058      5.5361585494685244
    94   2      5.8267547982065997                       0     0.84163042435634416
    95   2   -0.018661926259633504      6.6623137577909182      8.0025382368766991
    96   2      8.7534395218779011      1.6564776950126023      8.0846484460392585
    97   2      8.7401321973098778      5.0461176768697538     0.84163042435634416
    98   2      2.9133773991032785      5.0461176768697538     0.84163042435634416
    99   2      5.8311492490541506  -0.0014355885774397902      5.5626291529301408
   100   2       8.740132197309876      8.4101961281162527      3.4593945362622507
   101   2      5.7974915384687336      6.6849567852380334      7.7916998307621519
   102   2      2.8681904280036696      1.6685752472363566       7.790207386181371
   103   2      5.8267547982065553      3.3640784512465056      3.4593945362622507
   104   2 -4.3599999999999992e-14      3.3640784512465056      3.4593945362622507
   105   2   0.0032857271156852279    -0.01186645631837557      5.5644212945214928
   106   2  8.9999999999999983e-16                       0     0.84163042435634416
   107   2      2.9133773991032776      8.4101961281162527      3.4593945362622507
   108   3      10.250849767386862      4.0625003307949745      7.5152822471914709
   109   3      2.9133773991032772      3.0917580036970467      3.3010724808649616
   110   3 -4.3599999999999992e-14      8.1378756805668004      3.3010724808649616
   111   3      5.8267547982065553      8.1378756805668004      3.3010724808649616
   112   3       4.132202971906807      2.3857284981765692      1.3166483637921624
   113   3      9.9589577701134058      2.3857284981765692      1.3166483637921624
   114   3      1.2188255728034858      7.4318461750463234      1.3166483637921624
   115   3      7.0455803710100851      7.4318461750463234      1.3166483637921624
   116   3      4.1388994497242972      9.0978650172751401      7.8725774626977296
   117   3      6.7076604137265097      7.7503329977759901      10.280241267099477
   118   3      4.6550234968570718      8.9378987443267786      11.775642858194688
   119   3      2.9508447979806376      7.0302937779670351      7.8573297106257165
   120   3      4.6323964869719045      4.2186838524588959      7.6980747613346638
   121   3      7.5243735159991552      9.1259620160531707      7.7750889713685911
   122   3      1.7241341060150541      9.1672996895201209      7.7890628207304013
   123   3      7.5363703507341251      7.6694312297377856       5.834502755596521
   124   3      1.7200141833085483      7.6669789764933807      5.8768685961852336
   125   3      9.0174109088934369      7.4174768869655958      11.820792337048863
   126   3      6.7719102872756141      2.9435149597415631      10.539547788664153
   127   3      2.4029193689965007      5.0475373344876679      9.8699727554092771
   128   3      11.080692901762625      9.1525005604353957      12.080123192022574
   129   3       4.134229673107142     0.97717983658635332      3.3010724808649616
   130   3       8.740132197309876      3.0917580036970467      3.3010724808649616
   131   3      4.7053172781665777      1.6523968196873766      12.045070701769816
   132   3      2.7249172999465365      9.5003402482649957      10.515267137999235
   133   3      5.8267547982065553      5.3207783573863692      1.3166483637921624
   134   3      9.2244625915712106      4.9973275930045888      11.482177144061918
   135   3      5.9637821126378618        4.75253622302764      5.8177760009588129
   136   3      11.029099044768559      4.4239642094322251      9.9705617654228718
   137   3      8.7406327351600073      7.0494790486015644      7.8735050327657516
   138   3      1.6945518262997477      2.3857284981765683      1.3166483637921624
   139   3      9.9394228105515214      7.6394081594949395      5.8162776083748344
   140   3      9.9609844713137417     0.97717983658635332      3.3010724808649616
   141   3      7.0476070722104192      6.0232975134561082      3.3010724808649616
   142   3       10.04020959868415      9.1168715540381058      7.6884567679535021
   143   3      1.0284054469038055      4.0630528685365572      7.7560267113531545
   144   3      7.0584871699183669      4.0659572278177283      7.9192595983265353
   145   3      2.9852274066605444      9.8033027306126233      5.8382489013981234
   146   3      8.7275357934623781      9.8165025326624491      5.8152193118516129
   147   3      4.6606782895740908      2.6657954848406762      5.8769959835129377
   148   3      10.557905904096449      2.5010125223902309       5.636574270133945
   149   3      4.6079292254030255      7.4318461750463234      1.3166483637921624
   150   3      1.6925251250994144     0.97717983658635321      3.3010724808649616
   151   3      10.647234057669515      1.7892630702579684      10.398208601658954
   152   3      8.7214416727991342     0.60023279440770061      12.120018133828433
   153   3      2.0018025695825457      5.8488694346488597      12.682528830513535
   154   3      7.0301968236637187      5.3109915841575974      10.291242829936641
   155   3     0.83318386535230149     0.92650789312640502      12.625517845038829
   156   3      3.0361518899093221      7.2770294431764446      10.948807761026327
   157   3      7.5213066245063471      2.3857284981765683      1.3166483637921624
   158   3      2.3597530292453235      1.7071667396941048      10.503773709027714
   159   3      10.434684023609625      7.4318461750463234      1.3166483637921624
   160   3      5.7989565755871517      2.0140038943434555      7.8833801429363461
   161   3    -0.11740697381397328      2.0383729162344273      7.7469868152183334
   162   3      1.2208522740038206      6.0232975134561082      3.3010724808649616
   163   3      7.1333038408562786      2.6599540362085725      5.9470847782127061
   164   3      1.2588602526863282      2.6307942663365975      5.7880777032723589
   165   3      4.1582543756008832      7.6953704229047402      5.8589506170586123
   166   3      4.6059025242026905      6.0232975134561082      3.3010724808649616
   167   3      6.9423741110368127      8.9311546104325412      12.535771377872532
   168   3      1.2737459270965943      3.3748060411132315      11.491226405910856
   169   3      9.2113324104791126      9.4798306915205526      10.027012120268161
   170   3      9.1670127811256457      2.9436985683998711      12.426204062797613
   171   3     0.12618400888308415      4.7214386985478303      5.6740683529218332
   172   3       4.245744095321891      3.1959047243201577       9.997766543947268
   173   3      11.383558773074185      6.2781376841218357      11.599832369866817
   174   3      3.9834543679535148      3.9020716499004879      12.497820841421454
   175   3      6.3750855022158266     0.43704323572288079      10.233893096941724
   176   3      5.2711511574065071      6.4621840705432874      11.937370259130397
   177   3     0.38566891355033017      8.0047036489028773      10.032272335615094
   178   3 -4.3599999999999992e-14      5.3207783573863692      1.3166483637921624
   179   3       8.740132197309876      0.2746606805166148      1.3166483637921624
   180   3      2.9133773991032776      0.2746606805166148      1.3166483637921624
   181   3      10.432657322409289      6.0232975134561082      3.3010724808649616
   182   3       7.519279923306013     0.97717983658635321      3.3010724808649616
   183   4   -0.066096961068022347      3.3633460691295274      6.7001345142575577
   184   4      5.8653027594824323      3.3813245011136424      6.8795037101382617
   185   4      2.9133773991032776      1.6820392256232506      2.2987940834959804
   186   4 -4.3599999999999992e-14      6.7281569024930041      2.2987940834959804
   187   4      2.9282464678777855      8.4180914223315462      6.8548530517940778
   188   4      8.7536075418548283      8.4121474399132019      6.8314645894053694
   189   4      5.8267547982065553      6.7281569024930041      2.2987940834959804
   190   4       8.740132197309876      1.6820392256232506      2.2987940834959804
