(written by ASE)

190 atoms
4 atom types

0.0      11.653509596413199  xlo xhi
0.0        10.0922353537395  ylo yhi
0.0                      30  zlo zhi
                      0                       0                       0  xy xz yz

Atoms # atomic

     1   1     0.84266489063308037     0.45872711465915372      5.2040335182345654
     2   1      9.5831989105438886       5.543872853941167      5.1452039327169894
     3   1      10.727507074871536      3.5271322904990763      10.165508174187263
     4   1      3.7427255872536223      5.5290845350663567       5.201085968180239
     5   1      8.5147189979235769       3.108147311836031      12.109857384075761
     6   1      6.6914428404490289     0.48364977843071577      5.2182273807106245
     7   1       3.641778958257146      2.9272968571706777      10.344068960117644
     8   1      2.0140270524812696      2.1772537216422987      8.0842077717719096
     9   1      5.2456145619748114      8.8291062869703971      11.139121525944851
    10   1      3.7546337913945762      4.5604180723228787                     0.5
    11   1      4.8264088355579178     0.51894934874357379      12.065421472433538
    12   1      6.6680111904978974      9.6065357491926271                     0.5
    13   1      3.0781802331312047      7.6450402763840373       9.883237249177304
    14   1      2.9989830503465855      9.2597606371109826      11.268524720044011
    15   1     0.82844132862970477      3.9839391776251856      10.921232248459994
    16   1      5.7524817791852003      5.7305281980536869      8.1132771848314089
    17   1    -0.04806083424590759      5.6625388360897189      8.3447763712425065
    18   1      1.0879871449245042      5.9406389155074164      12.518249219682556
    19   1      8.7267761003562843     0.64390152851448912      8.4335289450745492
    20   1      9.0958349917590287     0.31249929457752168      11.326802623393828
    21   1      2.8280306411251588     0.68778594951895022      8.0962351720787709
    22   1      10.910685939849909      1.5625205993401292      11.427524350188463
    23   1      5.8070683150157567      2.7490247493125608      10.806791704677405
    24   1      6.6656747630207986      2.8797277837324504      3.8043095294545042
    25   1     0.83891996481419984      2.8797277837324504      3.8043095294545042
    26   1      9.5790521621241194       7.925845460602198      3.8043095294545042
    27   1 -4.3599999999999992e-14      3.3640784512465056      2.4321633756321481
    28   1      2.9283654459134452      1.6879185118637496      6.8037718095722619
    29   1      2.9139916587998815      4.0718517803487204      5.2119666025855151
    30   1       8.740132197309876      6.0175168859635022                     0.5
    31   1 -4.3599999999999992e-14     0.97139920909375399                     0.5
    32   1      5.8267547982065553     0.97139920909375399                     0.5
    33   1      5.0104665950875145     0.49396332816150795       5.216884068322944
    34   1      6.8879562849643587       4.386736491046439       10.08775833478677
    35   1       1.222241560242153      1.9522834758147634      12.117914870210639
    36   1       8.740132197309876      9.3788974631443622      3.8043095294545042
    37   1     0.84125639229129867      9.6065357491926271                     0.5
    38   1      7.8919838735225278      5.5389566105033765       5.183330051697661
    39   1      5.8267547982065553      3.3640784512465056      2.4321633756321481
    40   1        9.00712355497744      8.5836423313921522      10.611865782948794
    41   1       8.740132197309876      8.4101961281162527      2.4321633756321481
    42   1      2.9133773991032776      8.4101961281162527      2.4321633756321481
    43   1      9.5813885896011737      4.5604180723228787                     0.5
    44   1      2.9133773991032776      9.3788974631443622      3.8043095294545042
    45   1      2.4789451574784533       5.808476909921743      10.228663282366719
    46   1      7.9271570121964956      2.1423749052031194      8.4028676413152414
    47   1      10.905627860365186      8.6923069863696352      11.383857571204016
    48   1      4.9876184988742187       7.234008716112478      8.0750549676200976
    49   1      6.9401767558582081      9.2611841555822902      12.009425469203981
    50   1      10.778453157646785      7.1357068786691498      8.2635489828151343
    51   1      2.8515931411814366      1.1374166712401423      10.861655028377671
    52   1      2.0744574342890343       7.925845460602198      3.8043095294545042
    53   1      2.9133773991032785      5.0461176768697538       1.866758950346576
    54   1      5.8267547982065997                       0       1.866758950346576
    55   1  8.9999999999999983e-16                       0       1.866758950346576
    56   1      7.8988758050185357      4.5604180723228804                     0.5
    57   1      2.0721210068119365      4.5604180723228804                     0.5
    58   1      10.812253204121857      9.6065357491926289                     0.5
    59   1      2.9133773991032776      6.0175168859635022                     0.5
    60   1       10.81383484505956      0.4641440197844009      5.2105930683262427
    61   1      2.0622235639330624      5.5238865428715789      5.2271653178350128
    62   1      8.3144749820017889       5.407668756884255      10.950131522468595
    63   1       8.749936447295994      4.0877799453653649      5.1553113469454548
    64   1      8.7837556344310865      5.0424516228171017      6.5251146906291924
    65   1      2.9351775364984372      5.0293373710407225      6.5861521031656327
    66   1      5.8524740194258129   -0.020297968375084977      6.5809701934560376
    67   1  -0.0067825673229468591    -0.04034005234944487      6.5732120477302463
    68   1      5.8629372712622025       6.692282420448568      6.7720834497071278
    69   1      6.1519160409382936      7.0645962860172906      10.790287003556498
    70   1 -0.00018885066566917856      6.5831818384972749      6.9376678147112063
    71   1      8.7052130069616513      1.5879669644859533      7.0454629114579275
    72   1      10.814589631598912      2.8797277837324491      3.8043095294545042
    73   1      7.1055028727661105     0.81620256272833647      10.799325507209959
    74   1 -4.3599999999999992e-14      4.3327797862746138      3.8043095294545042
    75   1      4.9854984059152576      9.6065357491926289                     0.5
    76   1      3.7522973639175206       7.925845460602198      3.8043095294545042
    77   1      8.7401321973098778      5.0461176768697538       1.866758950346576
    78   1      3.7206860531899082      2.1437607824687572      8.1788702607274502
    79   1      4.9800143035991065      5.5310209102240666       12.05381584815218
    80   1      9.6236180334899863      2.0690859007543136      8.3450894745510453
    81   1      1.0001281425368014      8.6558917951629457      10.596356728151868
    82   1     0.79607367838818766      7.1122748692624924      8.3128591647362473
    83   1      8.1860390716641209      7.9382324273527374      12.219709778430058
    84   1       6.676083574501491      7.1421712245754199      8.1627767127997082
    85   1  -0.0025206901310647865      9.0982930318450599      5.1951054453365817
    86   1      5.8267547982065553      4.3327797862746138      3.8043095294545042
    87   1      5.8462245551563292      9.1257540223678024      5.1939641259178968
    88   1      7.9012122324956335       7.925845460602198      3.8043095294545042
    89   1      10.621899015070749       5.707545497040373      11.719605990599351
    90   1      4.9878348333923119      2.8797277837324491      3.8043095294545042
    91   1       3.114760174578199      4.4300164986357347      12.228617959148675
    92   2       2.909564415827897      5.0414577305180348      5.5571732232393805
    93   2      8.7470687466953354      5.0582470830339661      5.4972823843153984
    94   2      5.8267547982065997                       0     0.84163042435634416
    95   2   -0.034394379547541244      6.6202449459345925       7.965347453420855
    96   2      8.7439743215671086       1.611424558507548       8.075248005351586
    97   2      8.7401321973098778      5.0461176768697538     0.84163042435634416
    98   2      2.9133773991032785      5.0461176768697538     0.84163042435634416
    99   2      5.8472738316953423  -0.0018654168579990194      5.5519888874506576
   100   2       8.740132197309876      8.4101961281162527      3.4593945362622507
   101   2      5.8210596417518889      6.7039076136199105      7.7958384904301914
   102   2      2.8738345773372695      1.6780531826720044      7.8232223705950608
   103   2      5.8267547982065553      3.3640784512465056      3.4593945362622507
   104   2 -4.3599999999999992e-14      3.3640784512465056      3.4593945362622507
   105   2   0.0024777061682938143   -0.026562589961351149      5.5435761794422307
   106   2  8.9999999999999983e-16                       0     0.84163042435634416
   107   2      2.9133773991032776      8.4101961281162527      3.4593945362622507
   108   3       10.27358437598604      4.0214352715492589      7.5888099202210331
   109   3      2.9133773991032772      3.0917580036970467      3.3010724808649616
   110   3 -4.3599999999999992e-14      8.1378756805668004      3.3010724808649616
   111   3      5.8267547982065553      8.1378756805668004      3.3010724808649616
   112   3       4.132202971906807      2.3857284981765692      1.3166483637921624
   113   3      9.9589577701134058      2.3857284981765692      1.3166483637921624
   114   3      1.2188255728034858      7.4318461750463234      1.3166483637921624
   115   3      7.0455803710100851      7.4318461750463234      1.3166483637921624
   116   3      4.1616434238830653      9.1324330318904927       7.787090129548206
   117   3      6.2651558500236266      7.9203202634311713      10.289435196329066
   118   3      4.5942962261324638      9.0813438318771329      11.855813008639824
   119   3      2.9317974891643579      7.0674894507870922      7.8767479510994782
   120   3      4.6168028349174683      4.1792304344825233      7.6086619999391987
   121   3      7.5678925994437742      9.1646766805027013      7.7005929603541317
   122   3      1.7334177916238351      9.1753760321938387      7.7609145206238006
   123   3      7.5214197657170994      7.6924933816188252      5.7809531148167421
   124   3       1.714035848739947       7.684477890456118      5.8499445549704747
   125   3      8.8080350107754288      7.5815198624463136      11.554178209385098
   126   3      6.7925410695570125      2.8255331420401659      10.793650799951038
   127   3      2.1908300766208106      4.9393039735750426      9.9338765893150676
   128   3      11.119617375460734      9.1847881021032656      12.175254269978824
   129   3       4.134229673107142     0.97717983658635332      3.3010724808649616
   130   3       8.740132197309876      3.0917580036970467      3.3010724808649616
   131   3      4.7769127082011913      1.4613684494762209      12.086510374123803
   132   3      2.3599805569610406      9.5173314596454457      10.583905239793218
   133   3      5.8267547982065553      5.3207783573863692      1.3166483637921624
   134   3       9.153325106524747      5.0964670863312023      11.315951594701609
   135   3      5.9955107202318727      4.7390471036579074      5.7321650741178436
   136   3      11.223379440258082      4.3162921036245834       10.01598460092522
   137   3      8.7725559068763506      7.0383260773989758      7.7692062534116859
   138   3      1.6945518262997477      2.3857284981765683      1.3166483637921624
   139   3      9.9563150911850293      7.6523939979186766      5.7457354441543957
   140   3      9.9609844713137417     0.97717983658635332      3.3010724808649616
   141   3      7.0476070722104192      6.0232975134561082      3.3010724808649616
   142   3      10.035004391539037      9.1263636798112096      7.6356105987536314
   143   3      1.1106818756793901      4.0341708107226308      7.6615143820692255
   144   3      7.0589195653278738      4.0433600304642852       7.795658463903405
   145   3      2.9578889201570209      9.8077050637716248      5.7809529822096026
   146   3      8.7549663520524064      9.8013939148014568      5.7102640165350076
   147   3      4.6867892768493391       2.668109418426293      5.7400674219069616
   148   3      10.429662880794135      2.5845395228629653      5.6686330691121292
   149   3      4.6079292254030255      7.4318461750463234      1.3166483637921624
   150   3      1.6925251250994144     0.97717983658635321      3.3010724808649616
   151   3      10.513275074473812      1.7495992492191976      10.568555807701287
   152   3      8.4154529058214589      0.7445440479568558      11.901807772270452
   153   3      1.9759290254169855       5.872705841759851      12.916999047950819
   154   3      7.0638004267091157      5.3290592393995988      10.001725509285464
   155   3      0.8680095639037082      1.1731265215677138      12.569084867301125
   156   3      3.1617922563374647       7.168210304957161      10.723283528848198
   157   3      7.5213066245063471      2.3857284981765683      1.3166483637921624
   158   3      2.4203052762539699      1.9382215053259462      10.546428164138087
   159   3      10.434684023609625      7.4318461750463234      1.3166483637921624
   160   3       5.752785486382928      2.0021636903379303      7.8097523999864737
   161   3   -0.072277505435814182      1.9582716293361431      7.6920844050422579
   162   3      1.2208522740038206      6.0232975134561082      3.3010724808649616
   163   3      7.1259306767225237       2.587474516532092      5.8823560220457605
   164   3      1.2006813576572077      2.6172919155739609        5.76612013824258
   165   3      4.1380084691173078      7.6816264262099532      5.8287179704213585
   166   3      4.6059025242026905      6.0232975134561082      3.3010724808649616
   167   3      7.0150714037381903      8.5997313248752327       12.72125711121094
   168   3      1.0060820577603657      3.6348790131313113      11.828282074367378
   169   3      9.3164024300597195      9.3858907909445701       10.11662464814318
   170   3      9.2095341817211658      2.9999124113084168      12.743713472381593
   171   3   -0.038531676776674455      4.7413964708774721      5.7060243815044904
   172   3      4.4981187773512046      3.2275615261496897      10.066202553454533
   173   3      11.430998355202348      6.2470904864694781      11.763605958000028
   174   3      4.1134171013018861      4.4411400979849605      12.239012671801376
   175   3      6.4866170612646989     0.18694082879006549      10.401851649738795
   176   3      5.5847374864009218       6.289366526819232      11.885233114654726
   177   3      0.4255900157878284      8.1840855632156995      9.9870739212961084
   178   3 -4.3599999999999992e-14      5.3207783573863692      1.3166483637921624
   179   3       8.740132197309876      0.2746606805166148      1.3166483637921624
   180   3      2.9133773991032776      0.2746606805166148      1.3166483637921624
   181   3      10.432657322409289      6.0232975134561082      3.3010724808649616
   182   3       7.519279923306013     0.97717983658635321      3.3010724808649616
   183   4   -0.074061812521910769      3.3298907540991021      6.6954906928549622
   184   4       5.881645283563139      3.3661327348135885       6.789949585453698
   185   4      2.9133773991032776      1.6820392256232506      2.2987940834959804
   186   4 -4.3599999999999992e-14      6.7281569024930041      2.2987940834959804
   187   4      2.9363961006186932      8.4319620470821057      6.8196214465483429
   188   4      8.7707872638539701      8.4133581858734576       6.755764729036982
   189   4      5.8267547982065553      6.7281569024930041      2.2987940834959804
   190   4       8.740132197309876      1.6820392256232506      2.2987940834959804
