(written by ASE)

190 atoms
4 atom types

0.0      11.653509596413199  xlo xhi
0.0        10.0922353537395  ylo yhi
0.0                      30  zlo zhi
                      0                       0                       0  xy xz yz

Atoms # atomic

     1   1     0.84033233174420718     0.48533744353998393      5.2235174540216187
     2   1      9.5871168035561585      5.5335659693973112      5.2172408656766533
     3   1      10.515579356301004       3.502766620704127      10.280499638121109
     4   1      3.7493891408101909      5.5306145724435245      5.2235596414747345
     5   1       8.326675471748942      3.0625932146250245      11.719261926242817
     6   1      6.6712451337649643     0.48091149796184185      5.2192394888463047
     7   1      3.1444470506635547        2.99829860702132      10.319997749976672
     8   1      2.0461234085307654      2.1510992195147787      8.1662465974872891
     9   1       5.094435714763204      8.9374606843723292      10.880235530482301
    10   1      3.7546337913945762      4.5604180723228787                     0.5
    11   1      4.9178060908560415     0.73442459952066952      11.973247449211389
    12   1      6.6680111904978974      9.6065357491926271                     0.5
    13   1      3.6356972429668644      7.6839761182510902      10.300244474069855
    14   1      2.9235327552726678      9.0291484101895794      11.467519734405743
    15   1     0.87604346708130287      3.9689938370088731      10.901531840783719
    16   1      5.7780208140546874      5.7044198083813376      8.1306530047946417
    17   1   -0.017447311341609366      5.7384397703417651      8.4032539072388754
    18   1      1.0733064655612428      6.1059586538024471      11.947897783781055
    19   1      8.7444659285169077     0.68706927454648581      8.4202470921726036
    20   1      9.0106104872629089     0.76686986932109746       11.15142920864151
    21   1      2.8678518707850764     0.68351776723986724      8.1707867405813097
    22   1      10.642638485183531      1.6755008395010598      11.295685963288189
    23   1       5.901288058579456      2.7003183069633581       10.77181596801015
    24   1      6.6656747630207986      2.8797277837324504      3.8043095294545042
    25   1     0.83891996481419984      2.8797277837324504      3.8043095294545042
    26   1      9.5790521621241194       7.925845460602198      3.8043095294545042
    27   1 -4.3599999999999992e-14      3.3640784512465056      2.4321633756321481
    28   1      2.9111329254912661      1.6756126058396066      6.8114175131976209
    29   1      2.9109145837823478      4.0757048586951719      5.2253861507432564
    30   1       8.740132197309876      6.0175168859635022                     0.5
    31   1 -4.3599999999999992e-14     0.97139920909375399                     0.5
    32   1      5.8267547982065553     0.97139920909375399                     0.5
    33   1      4.9840703520163014     0.48475771561931352      5.2214065215892385
    34   1      6.8527351292058727      4.4909768367212717      10.149751832618202
    35   1      1.1252256986350082      1.6492071138718254       11.88585403665596
    36   1       8.740132197309876      9.3788974631443622      3.8043095294545042
    37   1     0.84125639229129867      9.6065357491926271                     0.5
    38   1      7.9011674964122776      5.5335310724250357      5.2106605510872388
    39   1      5.8267547982065553      3.3640784512465056      2.4321633756321481
    40   1      8.8969682064954974      9.0046158648731236      10.812529125696761
    41   1       8.740132197309876      8.4101961281162527      2.4321633756321481
    42   1      2.9133773991032776      8.4101961281162527      2.4321633756321481
    43   1      9.5813885896011737      4.5604180723228787                     0.5
    44   1      2.9133773991032776      9.3788974631443622      3.8043095294545042
    45   1      2.6825287240067048      5.8945348824787649      10.529520545554774
    46   1      7.9013138108105183      2.1562160150137415      8.3997352664101026
    47   1      10.843791876753947      8.6453706148454081      11.144177329950049
    48   1      4.9608796161660225      7.1764291585564974      8.1285531683304857
    49   1       7.093010492834896       9.150987373555207      11.334953191916444
    50   1      10.811848144130787      7.2194374122364637      8.3561977835968051
    51   1      3.2550907762769965        1.14718134368972      10.765147983022263
    52   1      2.0744574342890343       7.925845460602198      3.8043095294545042
    53   1      2.9133773991032785      5.0461176768697538       1.866758950346576
    54   1      5.8267547982065997                       0       1.866758950346576
    55   1  8.9999999999999983e-16                       0       1.866758950346576
    56   1      7.8988758050185357      4.5604180723228804                     0.5
    57   1      2.0721210068119365      4.5604180723228804                     0.5
    58   1      10.812253204121857      9.6065357491926289                     0.5
    59   1      2.9133773991032776      6.0175168859635022                     0.5
    60   1      10.814258501984789     0.49125962831205977      5.2261653105680361
    61   1      2.0657106132089424      5.5308981424084527      5.2268988377226853
    62   1      8.7442614137829615      5.4496030679227543      10.935346987372856
    63   1      8.7497463765922188      4.0756296662328673      5.2178497414706611
    64   1      8.7671626434443386      5.0417015635203617      6.5774483107872346
    65   1      2.9057558239601233      5.0482618478633805      6.5961451604958707
    66   1      5.8315419364606003  -0.0074218320498455779      6.5902287687287275
    67   1  -0.0021843517423688098   -0.004245758076907781      6.5922946080869771
    68   1      5.7964147266191315      6.6696881809474888       6.781105931926291
    69   1      6.2272356239137832      6.8573267088166387      10.626913189425562
    70   1    0.033633808924134784      6.6997530409041923      7.0221777534207197
    71   1      8.7578283449343175      1.6650388806235799      7.0578772872189237
    72   1      10.814589631598912      2.8797277837324491      3.8043095294545042
    73   1      7.0307279841412234     0.90484137779336027      11.037600832810297
    74   1 -4.3599999999999992e-14      4.3327797862746138      3.8043095294545042
    75   1      4.9854984059152576      9.6065357491926289                     0.5
    76   1      3.7522973639175206       7.925845460602198      3.8043095294545042
    77   1      8.7401321973098778      5.0461176768697538       1.866758950346576
    78   1      3.7079492051653329      2.1506441016908688      8.2000903064335109
    79   1      4.8817108261828075      5.6852109564264497      11.271562972627947
    80   1      9.6098149882196537      2.1452955845669583      8.3938712271932125
    81   1     0.82726859370824801      8.2797825459863219      10.813061589952618
    82   1     0.81718090714766156      7.1865164222793716      8.4220229648042526
    83   1        7.96696670275887      7.4770502306611855       11.77036897909173
    84   1       6.652901338807987      7.1455803219850402      8.1447434157182581
    85   1   0.0019014348546806256      9.1183692309290052      5.2244531295186727
    86   1      5.8267547982065553      4.3327797862746138      3.8043095294545042
    87   1      5.8279066765016561      9.1231642931358383      5.2179105165872945
    88   1      7.9012122324956335       7.925845460602198      3.8043095294545042
    89   1       10.48142213301483      5.8839006687799724      11.073263568873193
    90   1      4.9878348333923119      2.8797277837324491      3.8043095294545042
    91   1      3.7857879788052826      4.4673734706450254      11.777458116501782
    92   2      2.9095801383697881      5.0468314566766646      5.5666501462382287
    93   2      8.7418900776814894      5.0499239945069965      5.5484251263685218
    94   2      5.8267547982065997                       0     0.84163042435634416
    95   2  -0.0067499098324956411      6.7015404636838474      8.0439862503411206
    96   2       8.752172137579544      1.6649407749402054       8.087987796928207
    97   2      8.7401321973098778      5.0461176768697538     0.84163042435634416
    98   2      2.9133773991032785      5.0461176768697538     0.84163042435634416
    99   2      5.8268846678219912   0.0014743459631294839      5.5607337880926924
   100   2       8.740132197309876      8.4101961281162527      3.4593945362622507
   101   2      5.7996117987123768      6.6778951905754242      7.8093431105717537
   102   2       2.884097828550471      1.6574427781530747      7.8292959409800122
   103   2      5.8267547982065553      3.3640784512465056      3.4593945362622507
   104   2 -4.3599999999999992e-14      3.3640784512465056      3.4593945362622507
   105   2  0.00052978177402826011  -0.0029320779000481657      5.5624411561265168
   106   2  8.9999999999999983e-16                       0     0.84163042435634416
   107   2      2.9133773991032776      8.4101961281162527      3.4593945362622507
   108   3      10.245668384826033      4.0951538889912973      7.4867790396715952
   109   3      2.9133773991032772      3.0917580036970467      3.3010724808649616
   110   3 -4.3599999999999992e-14      8.1378756805668004      3.3010724808649616
   111   3      5.8267547982065553      8.1378756805668004      3.3010724808649616
   112   3       4.132202971906807      2.3857284981765692      1.3166483637921624
   113   3      9.9589577701134058      2.3857284981765692      1.3166483637921624
   114   3      1.2188255728034858      7.4318461750463234      1.3166483637921624
   115   3      7.0455803710100851      7.4318461750463234      1.3166483637921624
   116   3      4.1559682407008305      9.0923733283673336      7.9146390900343135
   117   3      6.6428499367789398      7.6316997231971806      10.223790076063166
   118   3       4.846157028070599      9.1504908202960511      11.784297191335382
   119   3      2.9433929932494909      7.0235141132814247      7.8927643175652369
   120   3      4.6469616284343953      4.1670728100664309      7.7971447934978491
   121   3      7.5024775788481346      9.1214133142504501      7.8255754745438013
   122   3      1.6973713989210271      9.1399794559036565      7.8237918709854908
   123   3      7.5281682998501687      7.6821798851416965      5.8777665233412195
   124   3      1.7226780024749777      7.6753062316549592      5.9095291129800165
   125   3      8.9239375906361005       7.435413892897893      11.891478245819222
   126   3      6.8416527229566837      2.8605364532391713       10.65005767746902
   127   3      2.6324535711783632      5.2080914945633285      9.8468418012834729
   128   3      10.952378505361724      9.0343792499744691      12.002876807988624
   129   3       4.134229673107142     0.97717983658635332      3.3010724808649616
   130   3       8.740132197309876      3.0917580036970467      3.3010724808649616
   131   3       4.608837712548647      1.6458673122969154      12.127831908401379
   132   3      2.8102930407454902      9.2309688987744956      10.544573168534461
   133   3      5.8267547982065553      5.3207783573863692      1.3166483637921624
   134   3      9.2660586409409991      5.1162311619378986      11.635698065221243
   135   3      5.8944556384192586      4.7568229735726684      5.8713527014648301
   136   3      10.899689228550457      4.3302858705927001      9.9394582665243334
   137   3      8.7425671369817035      7.0167839904376708      7.9030220592795555
   138   3      1.6945518262997477      2.3857284981765683      1.3166483637921624
   139   3      9.9401388671976516      7.6718371074020348       5.883921909368083
   140   3      9.9609844713137417     0.97717983658635332      3.3010724808649616
   141   3      7.0476070722104192      6.0232975134561082      3.3010724808649616
   142   3      10.014388603930323      9.1072598418898121      7.7791793580172248
   143   3      1.1246313135747208      4.0492198675261148      7.8356545754474078
   144   3      7.0547133062543379      4.0797295645747829      7.9635297593531504
   145   3      2.9616736226591396      9.7944054765134076      5.8942284747112925
   146   3      8.7263702348198251      9.8120687565128524      5.8851307630941445
   147   3      4.6374422069858792      2.6713838673501042      5.9110811979118107
   148   3       10.49951513776737      2.5368344524526245      5.7491807917165438
   149   3      4.6079292254030255      7.4318461750463234      1.3166483637921624
   150   3      1.6925251250994144     0.97717983658635321      3.3010724808649616
   151   3      10.785822655213725      1.9976346817069464      10.415065645602176
   152   3      8.7606653501250307     0.68006668745545573      12.065536222668072
   153   3      1.8584993082068162      6.0315258455512097       12.50429200521398
   154   3      6.8507217524216468      5.3328638811555926      10.585415630214028
   155   3     0.86350537129421123     0.95305226723398573      12.489321284552819
   156   3      3.0775145378004392      7.1955924278365275      10.907832077865152
   157   3      7.5213066245063471      2.3857284981765683      1.3166483637921624
   158   3      2.4283695601757143      1.3202691304685332        10.3145462124075
   159   3      10.434684023609625      7.4318461750463234      1.3166483637921624
   160   3      5.8218687407857805      1.9863991234322032      7.9114252890703094
   161   3   -0.028590684517758334      1.9943517022202943      7.8288596335761511
   162   3      1.2208522740038206      6.0232975134561082      3.3010724808649616
   163   3      7.0785138330940987      2.6786154021246462      5.9510177043940251
   164   3      1.2493696442264071      2.6391515602342595      5.8286249962851828
   165   3      4.1444740673865983      7.7010808505191521      5.8866868932842324
   166   3      4.6059025242026905      6.0232975134561082      3.3010724808649616
   167   3      6.9971038799744347      8.8979587077097353      12.252462056778368
   168   3      1.1245073522775875      3.3495595456056937      11.579412743309613
   169   3      9.1074566251659181      9.3664473888327837      9.9499009396591411
   170   3      9.1172507286901201      2.9567019747214558      12.240704653313086
   171   3     0.10329733276915599      4.7636760000518921      5.7776173697577118
   172   3      3.9369219552783616      3.2502540563391364      9.8301023420845706
   173   3      11.235915454674775      6.0299905553986273      11.681475019041393
   174   3      4.0668411770893274      3.8120182205727842      12.388470604914238
   175   3      6.4984453863263694     0.54467276515542051       10.32315751382845
   176   3      5.0825058978719291      6.4394386945273761      11.803154538281516
   177   3     0.54099283375126705      8.0340400604207289      9.9510120186317792
   178   3 -4.3599999999999992e-14      5.3207783573863692      1.3166483637921624
   179   3       8.740132197309876      0.2746606805166148      1.3166483637921624
   180   3      2.9133773991032776      0.2746606805166148      1.3166483637921624
   181   3      10.432657322409289      6.0232975134561082      3.3010724808649616
   182   3       7.519279923306013     0.97717983658635321      3.3010724808649616
   183   4   -0.028008769680554501      3.3614164015214776      6.7886753826603412
   184   4      5.8387508967576194      3.3772684582898882      6.9102265027142211
   185   4      2.9133773991032776      1.6820392256232506      2.2987940834959804
   186   4 -4.3599999999999992e-14      6.7281569024930041      2.2987940834959804
   187   4       2.916349249735481      8.4088728031381468      6.9006089615349948
   188   4      8.7459584974905287      8.4087818671467929      6.8955037872011546
   189   4      5.8267547982065553      6.7281569024930041      2.2987940834959804
   190   4       8.740132197309876      1.6820392256232506      2.2987940834959804
