(written by ASE)

190 atoms
4 atom types

0.0      11.653509596413199  xlo xhi
0.0        10.0922353537395  ylo yhi
0.0                      30  zlo zhi
                      0                       0                       0  xy xz yz

Atoms # atomic

     1   1     0.83823779219370265     0.45479379255870572      5.1741819155479529
     2   1      9.5739377496110851       5.545407539179136      5.0962821614648313
     3   1      10.827020203573111      3.3836881977572695      10.157196389122477
     4   1      3.7342099714321315      5.5281398021822019      5.1631135577603162
     5   1      8.6981938781971397      3.0650363082120649      12.337512856715149
     6   1      6.7033315895679833     0.48886807514260538      5.1996709262228036
     7   1      3.8795527650243034      2.8088242159378085      10.469923900756973
     8   1      2.0623833298932603      2.2471631700414765        8.13063897292602
     9   1      5.1811905891733376      8.5960949475159119      11.141001145036251
    10   1      3.7546337913945762      4.5604180723228787                     0.5
    11   1      4.7856628851651548     0.61713251126411983      12.017154888026221
    12   1      6.6680111904978974      9.6065357491926271                     0.5
    13   1      2.9909248591539712      7.4957755823471226      9.5387332531993447
    14   1      3.2138934144469755      9.1703794920890598      11.253625817561197
    15   1     0.88343850286139114      3.9888608726160344      11.124913424558398
    16   1      5.7523535305308107      5.7557403822264837      8.1552118240039739
    17   1   -0.053866347081381501       5.637703369460624      8.3699485008865135
    18   1      1.1144391963556348      5.8577480513692386      12.679344791830086
    19   1      8.6921642827322128     0.61738082538572592      8.4488585200815294
    20   1      8.8797724909742239     0.19728254792103683      11.245825114308548
    21   1      2.8018859059256522     0.73674120888928907      8.1174949627835566
    22   1      11.113828799003961      1.5247976100078906      11.405814838450228
    23   1      5.8452016697253439      2.8700106636998748      10.650545043258179
    24   1      6.6656747630207986      2.8797277837324504      3.8043095294545042
    25   1     0.83891996481419984      2.8797277837324504      3.8043095294545042
    26   1      9.5790521621241194       7.925845460602198      3.8043095294545042
    27   1 -4.3599999999999992e-14      3.3640784512465056      2.4321633756321481
    28   1      2.9400910348896141      1.7308283494324306      6.8127950281677991
    29   1      2.9036704151576358      4.0698312317997267      5.1609223690138508
    30   1       8.740132197309876      6.0175168859635022                     0.5
    31   1 -4.3599999999999992e-14     0.97139920909375399                     0.5
    32   1      5.8267547982065553     0.97139920909375399                     0.5
    33   1      5.0273493068502599     0.49858360348430947      5.1954582824511455
    34   1      6.9308693115246491      4.3299192629689909      10.183544269464591
    35   1      1.0931810503411636      2.3274559711421454      12.331876316708476
    36   1       8.740132197309876      9.3788974631443622      3.8043095294545042
    37   1     0.84125639229129867      9.6065357491926271                     0.5
    38   1      7.8927959180306484      5.5252589608346598      5.1622004202987934
    39   1      5.8267547982065553      3.3640784512465056      2.4321633756321481
    40   1        9.09531242017046      8.5353112398570463      10.519987366615757
    41   1       8.740132197309876      8.4101961281162527      2.4321633756321481
    42   1      2.9133773991032776      8.4101961281162527      2.4321633756321481
    43   1      9.5813885896011737      4.5604180723228787                     0.5
    44   1      2.9133773991032776      9.3788974631443622      3.8043095294545042
    45   1      2.5545482735299552      5.6940543333268705      10.257927305330011
    46   1      7.9448978502364964      2.1445580113395639      8.4244483793149829
    47   1      11.145015936897282      8.6520284672791696       11.51711960273337
    48   1      5.0617283491773932      7.2973240318359798      8.1051289971991594
    49   1      7.0470807837867486      9.4700186167088773      12.333852435477866
    50   1        10.7268832734116      7.0874512844662227      8.2325159757632047
    51   1       2.591749577191091      1.1388834929564706      10.836039649542659
    52   1      2.0744574342890343       7.925845460602198      3.8043095294545042
    53   1      2.9133773991032785      5.0461176768697538       1.866758950346576
    54   1      5.8267547982065997                       0       1.866758950346576
    55   1  8.9999999999999983e-16                       0       1.866758950346576
    56   1      7.8988758050185357      4.5604180723228804                     0.5
    57   1      2.0721210068119365      4.5604180723228804                     0.5
    58   1      10.812253204121857      9.6065357491926289                     0.5
    59   1      2.9133773991032776      6.0175168859635022                     0.5
    60   1      10.816146993498512     0.45387647789743851      5.1681925957755022
    61   1      2.0537038516064077      5.5166748988158378      5.2205842971202623
    62   1      8.4417502158279287       5.367416478152089       10.80316148667851
    63   1      8.7476060197737535      4.0804428962278294      5.1136418914146047
    64   1      8.7973197328504185      5.0286246209748358      6.4955896596943807
    65   1      2.9545701524306658      4.9989730497271454       6.554216416266013
    66   1      5.8624726704046299   -0.028745830427826018      6.5569153409310674
    67   1   -0.018421772111156982   -0.057526725992993445      6.5354003327699139
    68   1      5.9298774968810131      6.7198984577497889      6.8033652678408156
    69   1      5.8349008649159506      6.9568488939274697      10.948817854995315
    70   1   -0.029559390177958264      6.5175584439338454      6.9364485725403267
    71   1      8.6605041367083953      1.5314513354656736       7.055204731053049
    72   1      10.814589631598912      2.8797277837324491      3.8043095294545042
    73   1      7.1665106007378965     0.76140517440197308      10.901119477627073
    74   1 -4.3599999999999992e-14      4.3327797862746138      3.8043095294545042
    75   1      4.9854984059152576      9.6065357491926289                     0.5
    76   1      3.7522973639175206       7.925845460602198      3.8043095294545042
    77   1      8.7401321973098778      5.0461176768697538       1.866758950346576
    78   1      3.7501810764808665      2.1299206095958274      8.1953004635791107
    79   1      4.9203009609086816      5.5668499154461344      12.179360995106506
    80   1      9.6348349770859318      2.0106218851437712      8.3104644185021943
    81   1      1.0285302180860509      8.8528821317803157      10.285276439145031
    82   1     0.75107050931385544          7.110232931214      8.2894713288942086
    83   1       8.208654137894202      7.9753082203349477      12.205240653224983
    84   1      6.7332341001921261      7.1253032616685354      8.2080071483607995
    85   1   -0.003627778056362939      9.0873472807406603      5.1524873516788121
    86   1      5.8267547982065553      4.3327797862746138      3.8043095294545042
    87   1      5.8606325192488855       9.128704981453593       5.157119183707608
    88   1      7.9012122324956335       7.925845460602198      3.8043095294545042
    89   1      10.472988021068158      5.7811772094127196      11.698594750767501
    90   1      4.9878348333923119      2.8797277837324491      3.8043095294545042
    91   1      3.0230835577470789      4.8171762248937622      12.599008108063252
    92   2        2.90822333078393      5.0323993388404622      5.5266012257755657
    93   2      8.7515684092710035      5.0479088276476629      5.4675917970971053
    94   2      5.8267547982065997                       0     0.84163042435634416
    95   2   -0.066839943010367067      6.5869869389642721      7.9637866215189153
    96   2      8.7308933917585829      1.5780098219869314      8.0813178033213582
    97   2      8.7401321973098778      5.0461176768697538     0.84163042435634416
    98   2      2.9133773991032785      5.0461176768697538     0.84163042435634416
    99   2      5.8609683783615036  -0.0043444197168925674      5.5279301511360419
   100   2       8.740132197309876      8.4101961281162527      3.4593945362622507
   101   2      5.8668640250332835      6.7238952345845799      7.8292334122620382
   102   2       2.886502043293711      1.7154910847549298      7.8310385884067655
   103   2      5.8267547982065553      3.3640784512465056      3.4593945362622507
   104   2 -4.3599999999999992e-14      3.3640784512465056      3.4593945362622507
   105   2  0.00053126752905615856   -0.039121107228249997      5.5067951780464082
   106   2  8.9999999999999983e-16                       0     0.84163042435634416
   107   2      2.9133773991032776      8.4101961281162527      3.4593945362622507
   108   3      10.301487402217642       3.986626295457647      7.6553130658727477
   109   3      2.9133773991032772      3.0917580036970467      3.3010724808649616
   110   3 -4.3599999999999992e-14      8.1378756805668004      3.3010724808649616
   111   3      5.8267547982065553      8.1378756805668004      3.3010724808649616
   112   3       4.132202971906807      2.3857284981765692      1.3166483637921624
   113   3      9.9589577701134058      2.3857284981765692      1.3166483637921624
   114   3      1.2188255728034858      7.4318461750463234      1.3166483637921624
   115   3      7.0455803710100851      7.4318461750463234      1.3166483637921624
   116   3      4.1616682706752401      9.1519908242854235      7.7663850386992781
   117   3      5.8536792910246547      7.7987862778419226      10.407833293319086
   118   3      4.4902813971645372      9.0704078084089854      11.767993677948091
   119   3      2.9067678330346234      7.1132589894912819      7.9167825387345632
   120   3        4.62386294146072      4.1555443576682514      7.6026888123574468
   121   3      7.5764880313123397      9.1397980012954196      7.7006548125512619
   122   3      1.7258880927032654      9.2289270774374987      7.7699493974311684
   123   3       7.540323256883795      7.7022922896759436      5.7458649470462033
   124   3      1.7020057394449526      7.6879233603080719      5.8919090547555992
   125   3      8.7662399402275888      7.5227738387078444      11.548468100617963
   126   3      6.8361323588822103      3.0306285776834452      10.840986520037687
   127   3      2.0873166263330081      4.9117007119067777      9.9602385657561499
   128   3       10.92871072601209      9.2004933734321295       12.27567743351581
   129   3       4.134229673107142     0.97717983658635332      3.3010724808649616
   130   3       8.740132197309876      3.0917580036970467      3.3010724808649616
   131   3      4.6670815351214534      1.5480481904173506      12.196606052108811
   132   3      2.4359315017655065      9.6912581908587541      10.865255913708166
   133   3      5.8267547982065553      5.3207783573863692      1.3166483637921624
   134   3      9.1856894788219154      5.0033688603594673      11.320033352253956
   135   3      5.9484874897918631      4.7215039193018642      5.7099586766394737
   136   3      11.352653553079969      4.1814149606237869      10.019431862090334
   137   3      8.7703276606430602       7.038847700004367      7.7439209243483145
   138   3      1.6945518262997477      2.3857284981765683      1.3166483637921624
   139   3      9.9627799252976796       7.659715957966303      5.7160077678152152
   140   3      9.9609844713137417     0.97717983658635332      3.3010724808649616
   141   3      7.0476070722104192      6.0232975134561082      3.3010724808649616
   142   3      10.054057358113834      9.1100401587860809      7.6147253665968702
   143   3      1.1420714761468107      3.9844241455840019      7.6404342955778688
   144   3      7.0768845165021643      3.9676664422952266      7.7219379484755706
   145   3      2.9430921410615807      9.8156742319938264      5.7603902405360214
   146   3      8.7645458053525349      9.8224709085015025      5.7172337247598781
   147   3      4.6287577317943889      2.6363015214583898      5.7214056123103489
   148   3      10.377425482662835      2.5768501087951265      5.7365167295709369
   149   3      4.6079292254030255      7.4318461750463234      1.3166483637921624
   150   3      1.6925251250994144     0.97717983658635321      3.3010724808649616
   151   3      10.544168634148374      1.9058106710318055      10.713426058608521
   152   3      8.3475939897469633     0.75855212481769163       11.86929442958686
   153   3      2.0199183998518278      5.8609766022956089      13.049060787417323
   154   3      7.1257984468930289      5.2857577327748277      9.9736360778423592
   155   3     0.88388387087766229      1.3570150823626259      12.387978512489935
   156   3      3.1592343106569345      7.1835189871935459       10.44507207468564
   157   3      7.5213066245063471      2.3857284981765683      1.3166483637921624
   158   3      2.6113289151296732      2.0784925739308857      10.528087293355167
   159   3      10.434684023609625      7.4318461750463234      1.3166483637921624
   160   3      5.7432664120200165      1.9460352771725682      7.7410312350718335
   161   3   -0.045790490580295537       1.916344472594641      7.7066246376295835
   162   3      1.2208522740038206      6.0232975134561082      3.3010724808649616
   163   3      7.0649587530478728       2.561333762426695      5.7808207456566372
   164   3      1.1227394908756925      2.6160680683638491       5.705233345624749
   165   3       4.112644859594889      7.6675959736342874      5.8476713266009419
   166   3      4.6059025242026905      6.0232975134561082      3.3010724808649616
   167   3      7.0212923233374074      8.6837851161778996      12.876576143874386
   168   3      1.0829287618610139      3.7320740381603477      12.050467871149923
   169   3      9.3855957953681468       9.413158699384395      10.171289472557129
   170   3      9.2137081056100971      3.1333152627995817      13.131978097170478
   171   3   -0.075352817026933513      4.7327812406634768      5.7493948376894801
   172   3        4.67622067192994      3.1632324808128538      10.030208164182902
   173   3      11.289728068132993      6.1853862105346309      12.070638176566149
   174   3      3.8396814632666878      4.4504230883512994      12.242539593034696
   175   3      6.4401234219181278     0.25194547690471902       10.50629866458204
   176   3      5.7494316270655785      6.1024132371005635      12.138384598531248
   177   3     0.32447803961417115      8.2085029107794423      10.120515352233394
   178   3 -4.3599999999999992e-14      5.3207783573863692      1.3166483637921624
   179   3       8.740132197309876      0.2746606805166148      1.3166483637921624
   180   3      2.9133773991032776      0.2746606805166148      1.3166483637921624
   181   3      10.432657322409289      6.0232975134561082      3.3010724808649616
   182   3       7.519279923306013     0.97717983658635321      3.3010724808649616
   183   4   -0.077234446999937492      3.2938496140587405      6.7162441755905338
   184   4      5.8613078161075993      3.3316110980785925      6.7441903172675817
   185   4      2.9133773991032776      1.6820392256232506      2.2987940834959804
   186   4 -4.3599999999999992e-14      6.7281569024930041      2.2987940834959804
   187   4      2.9290032107704951      8.4665835807677841      6.8112233830852995
   188   4      8.7835329610487172      8.4140229967805507      6.7246928469333991
   189   4      5.8267547982065553      6.7281569024930041      2.2987940834959804
   190   4       8.740132197309876      1.6820392256232506      2.2987940834959804
