(written by ASE)

190 atoms
4 atom types

0.0      11.653509596413199  xlo xhi
0.0        10.0922353537395  ylo yhi
0.0                      30  zlo zhi
                      0                       0                       0  xy xz yz

Atoms # atomic

     1   1     0.84136191717089159     0.48739248245918881      5.2240924874773693
     2   1      9.5858881102660654      5.5315889055540648      5.2200619927840624
     3   1      10.559720024560582      3.4579899197597692      10.308658634706736
     4   1      3.7520976895663161      5.5332244771745644      5.2211104155522055
     5   1       8.263455462484032      2.9790979882096971      11.657883028745813
     6   1      6.6701571443408394     0.48272252564934631      5.2179933296429022
     7   1      2.9961279532431595      2.9849825043074856      10.322486033642514
     8   1      2.1065882082213729      2.1365482070384361      8.2822485581781553
     9   1      5.0090848708910292      9.0214838919941762      10.894104861492597
    10   1      3.7546337913945762      4.5604180723228787                     0.5
    11   1      5.0023849536528102     0.70755617140874516       11.86320892962714
    12   1      6.6680111904978974      9.6065357491926271                     0.5
    13   1      3.7220787234229156      7.6167906053902072      10.394271584208607
    14   1      2.9375628226974229      9.0335424212489439      11.514012308268805
    15   1     0.91032569652473461      3.8940338958130449      10.875020705560345
    16   1      5.7910332101183073      5.7237081882635596      8.2230382491900755
    17   1  -0.0063111104523150994      5.7465680199088212      8.3987350483698737
    18   1      0.9794694106692563      6.0005563111108042       11.71320525166537
    19   1       8.743248603844691     0.68680645804522522      8.4162566282051543
    20   1      8.9474766569718405     0.84552034532525611      11.057447673095195
    21   1      2.8652120157096386     0.72467729225480115      8.2884174156730097
    22   1      10.639265696792014      1.7585129712576104      11.318662742705387
    23   1      5.9240040710656112      2.7767054583000572      10.641076827101127
    24   1      6.6656747630207986      2.8797277837324504      3.8043095294545042
    25   1     0.83891996481419984      2.8797277837324504      3.8043095294545042
    26   1      9.5790521621241194       7.925845460602198      3.8043095294545042
    27   1 -4.3599999999999992e-14      3.3640784512465056      2.4321633756321481
    28   1      2.9110092392338287       1.688675505721932      6.8370090206239995
    29   1      2.9095432531520564       4.073086946450668      5.2234468742274762
    30   1       8.740132197309876      6.0175168859635022                     0.5
    31   1 -4.3599999999999992e-14     0.97139920909375399                     0.5
    32   1      5.8267547982065553     0.97139920909375399                     0.5
    33   1      4.9823254763742995     0.48497585123265258      5.2205689796200332
    34   1      6.8085986868522657      4.5681236267837697      10.246034440333148
    35   1      1.1561468285918894        1.71760776254956      11.790144804693783
    36   1       8.740132197309876      9.3788974631443622      3.8043095294545042
    37   1     0.84125639229129867      9.6065357491926271                     0.5
    38   1      7.8999842901913295      5.5340246297960825      5.2169175999796691
    39   1      5.8267547982065553      3.3640784512465056      2.4321633756321481
    40   1      8.9015465792042114      9.1056672053624279      10.945115211175144
    41   1       8.740132197309876      8.4101961281162527      2.4321633756321481
    42   1      2.9133773991032776      8.4101961281162527      2.4321633756321481
    43   1      9.5813885896011737      4.5604180723228787                     0.5
    44   1      2.9133773991032776      9.3788974631443622      3.8043095294545042
    45   1      2.8215985200043159      5.9005778082161067      10.558354223506354
    46   1       7.903473645716323      2.1633901334007009      8.3977010572238786
    47   1      10.850124493548888      8.5476543156704157      11.023815246550457
    48   1      5.0074647229809299      7.1916183665719764      8.2415291579655161
    49   1      7.0931988366786998      9.1263167023035692      11.153708035800236
    50   1      10.815823847658056      7.2320921988305233      8.3655435907208151
    51   1      3.3698807075002097      1.1329327811228276       10.59936440278814
    52   1      2.0744574342890343       7.925845460602198      3.8043095294545042
    53   1      2.9133773991032785      5.0461176768697538       1.866758950346576
    54   1      5.8267547982065997                       0       1.866758950346576
    55   1  8.9999999999999983e-16                       0       1.866758950346576
    56   1      7.8988758050185357      4.5604180723228804                     0.5
    57   1      2.0721210068119365      4.5604180723228804                     0.5
    58   1      10.812253204121857      9.6065357491926289                     0.5
    59   1      2.9133773991032776      6.0175168859635022                     0.5
    60   1      10.813443041652215     0.48869108748289525      5.2229412271602005
    61   1      2.0688227237185144      5.5317347691840544      5.2239757593305676
    62   1      8.7515656512226627      5.4497211172042297      10.850337896312976
    63   1      8.7480689175020245      4.0727308804285567       5.219205712667649
    64   1      8.7557338597473997      5.0445808596487325      6.5820561510508186
    65   1      2.9059842257685826      5.0472882045767555      6.5920134735484517
    66   1       5.828604925694477  -0.0039602031133127262      6.5885584180195131
    67   1 -0.00084264055279859495  -2.776565042379977e-05      6.5912937341454727
    68   1      5.8130316105060151      6.6853761404394314      6.8242993354855788
    69   1      6.3801422019770628      6.7713559880672793      10.619372979958994
    70   1    0.012984463824108472      6.7110916169590711      7.0376045650404908
    71   1       8.752799838622245      1.6821565008679693      7.0537924788972788
    72   1      10.814589631598912      2.8797277837324491      3.8043095294545042
    73   1      7.0370971310961368     0.99259825083324194        11.2028852234345
    74   1 -4.3599999999999992e-14      4.3327797862746138      3.8043095294545042
    75   1      4.9854984059152576      9.6065357491926289                     0.5
    76   1      3.7522973639175206       7.925845460602198      3.8043095294545042
    77   1      8.7401321973098778      5.0461176768697538       1.866758950346576
    78   1      3.6844237953415893      2.1602468453272801      8.3045658589915252
    79   1      4.9167932158376262      5.6683921006413511      11.015060002635121
    80   1      9.5986888664364862      2.1562646314076757       8.399063504791151
    81   1      0.8000111298557544      8.2736148201722202      10.936394661944403
    82   1     0.82679113248849456       7.208377355481228      8.4422819759672745
    83   1       7.897896501778165      7.3794401464642574      11.699893575685635
    84   1      6.6225103097221485      7.1736742670747473      8.2465261678730482
    85   1   0.0012674709831953178      9.1206318645998294      5.2214074519409071
    86   1      5.8267547982065553      4.3327797862746138      3.8043095294545042
    87   1      5.8273815539646927      9.1225724040228151      5.2196411423465863
    88   1      7.9012122324956335       7.925845460602198      3.8043095294545042
    89   1      10.621051166839765      6.0292556585746047      11.022772140062257
    90   1      4.9878348333923119      2.8797277837324491      3.8043095294545042
    91   1       3.788169476082758      4.4636332961680623      11.739940443504718
    92   2      2.9121259935057253      5.0455104330248446      5.5631245168082684
    93   2      8.7409578849857148      5.0467575668689362      5.5544673277533629
    94   2      5.8267547982065997                       0     0.84163042435634416
    95   2   0.0026114213110289774      6.7195781586294672      8.0648205898878977
    96   2      8.7477305085819292      1.6679640095212298      8.0863536407607217
    97   2      8.7401321973098778      5.0461176768697538     0.84163042435634416
    98   2      2.9133773991032785      5.0461176768697538     0.84163042435634416
    99   2      5.8260966157467351   0.0017875822695656352       5.559916524610844
   100   2       8.740132197309876      8.4101961281162527      3.4593945362622507
   101   2      5.8070356366933558      6.6817219125201346      7.8582629683391509
   102   2      2.9044379689882951      1.6577327222329847      7.8669309534727621
   103   2      5.8267547982065553      3.3640784512465056      3.4593945362622507
   104   2 -4.3599999999999992e-14      3.3640784512465056      3.4593945362622507
   105   2  0.00084996947201230555 -5.5759668529707781e-05      5.5616026211434031
   106   2  8.9999999999999983e-16                       0     0.84163042435634416
   107   2      2.9133773991032776      8.4101961281162527      3.4593945362622507
   108   3        10.3257639623082      4.0773991704079515      7.5589649135663182
   109   3      2.9133773991032772      3.0917580036970467      3.3010724808649616
   110   3 -4.3599999999999992e-14      8.1378756805668004      3.3010724808649616
   111   3      5.8267547982065553      8.1378756805668004      3.3010724808649616
   112   3       4.132202971906807      2.3857284981765692      1.3166483637921624
   113   3      9.9589577701134058      2.3857284981765692      1.3166483637921624
   114   3      1.2188255728034858      7.4318461750463234      1.3166483637921624
   115   3      7.0455803710100851      7.4318461750463234      1.3166483637921624
   116   3      4.1547604135457794      9.0834282416500152      7.9290668950800205
   117   3      6.4891248651659632      7.5718598619146533      10.032043307399594
   118   3      4.8576597869607134      9.4116285316988524      11.720469688077479
   119   3      2.9450420487784137      7.0202341957114305      7.9177837950454899
   120   3      4.6651108506849921      4.1253170024652688      7.8566385806336774
   121   3      7.5060341261044252      9.1100471585417289      7.8615408253124643
   122   3      1.6941248491648959      9.1192391282604337      7.8475077573001641
   123   3      7.5284407502116499      7.6967648467291196      5.9072893965827609
   124   3      1.7036929462000965      7.6814145542714023      5.9102161697044595
   125   3      8.8105511516371955       7.481845613112454       11.85786751595902
   126   3      6.8658601066067995       2.871041102512359      10.774884400061504
   127   3      2.7179808901414475      5.2208894143243825      9.8719414557969856
   128   3      10.923172492333558      8.9159124573133983      11.897214368446589
   129   3       4.134229673107142     0.97717983658635332      3.3010724808649616
   130   3       8.740132197309876      3.0917580036970467      3.3010724808649616
   131   3      4.5571731417322363      1.4752150473551209       12.13746004575583
   132   3      2.8187352072826126      9.1372251443476209      10.582684894728757
   133   3      5.8267547982065553      5.3207783573863692      1.3166483637921624
   134   3      9.1062999135884724      5.2105046143167799      11.688673591158288
   135   3      5.8568505735058798      4.7691976291021714       5.896120812363483
   136   3      10.761466602255146      4.2523438336647716      9.8197175338635869
   137   3      8.7364319286697558      7.0043224932651711      7.9175632941517193
   138   3      1.6945518262997477      2.3857284981765683      1.3166483637921624
   139   3      9.9478180139028805      7.6905029961711371       5.908187075980285
   140   3      9.9609844713137417     0.97717983658635332      3.3010724808649616
   141   3      7.0476070722104192      6.0232975134561082      3.3010724808649616
   142   3      9.9886091827601806      9.1046057454904936      7.8358340282001855
   143   3      1.1801436896441988      4.0535467894181512      7.8800006589924818
   144   3      7.0352425550284368      4.0852569295584829      7.9744569154678349
   145   3      2.9408843065703878      9.8100833094547006      5.9034349470470904
   146   3      8.7301648027331726      9.8200616790288375      5.9050140537448659
   147   3      4.6112029826837082      2.6590090245605142      5.9062002529126749
   148   3      10.444461994944509      2.5989283069143752      5.8360791581097757
   149   3      4.6079292254030255      7.4318461750463234      1.3166483637921624
   150   3      1.6925251250994144     0.97717983658635321      3.3010724808649616
   151   3      10.858572712014682      2.0485661064951413      10.435707352555299
   152   3      8.7267212284682465     0.71077866793918543      11.969238874888715
   153   3      1.7241077462187278      6.1851744875453081      12.332332760502895
   154   3      6.7575073074300631      5.2916157495307541      10.858426835800715
   155   3     0.87300269303272748     0.97871784402329431      12.336618085240479
   156   3      3.1951138526576246      7.0599912317888958      10.932510490669992
   157   3      7.5213066245063471      2.3857284981765683      1.3166483637921624
   158   3      2.5182919446312702      1.1657272053236554      10.208422763411431
   159   3      10.434684023609625      7.4318461750463234      1.3166483637921624
   160   3       5.826994502392659      1.9862218117272765      7.9181650679070454
   161   3   0.0027416567532997033      1.9669223095130073      7.8782335104611159
   162   3      1.2208522740038206      6.0232975134561082      3.3010724808649616
   163   3      7.0523382937340857      2.6751376491191139       5.941470975299846
   164   3      1.2310474328044587      2.6524579505579906      5.8769467384897531
   165   3      4.1297689868677425      7.7089361668510277      5.9140438238152973
   166   3      4.6059025242026905      6.0232975134561082      3.3010724808649616
   167   3       7.210196610135406      8.8958020428662472      12.073713190901827
   168   3      1.0471297258591674      3.3811866248231581      11.662981186814545
   169   3      8.9959428956149399      9.2830706030498611      10.000163497728755
   170   3       9.086932624289453      2.9635474678949496      12.103285215130601
   171   3    0.045023668389385534      4.7855536379394454      5.8515486737317604
   172   3      3.7138292147821623      3.1811012960424145      9.7630470568425451
   173   3      11.261341966921693      5.9719380825396557      11.680515877303574
   174   3      4.2332650344745355      3.8585780912238454      12.291911593194387
   175   3      6.6566888396257982     0.56433332544697934      10.422801601392866
   176   3      5.0364345538387711      6.3416205537347219      11.693506892394682
   177   3     0.62475773871827978      8.1133493407394894      10.018078161549843
   178   3 -4.3599999999999992e-14      5.3207783573863692      1.3166483637921624
   179   3       8.740132197309876      0.2746606805166148      1.3166483637921624
   180   3      2.9133773991032776      0.2746606805166148      1.3166483637921624
   181   3      10.432657322409289      6.0232975134561082      3.3010724808649616
   182   3       7.519279923306013     0.97717983658635321      3.3010724808649616
   183   4    0.014673161278780503      3.3452490539953263      6.8513923013515141
   184   4      5.8385269944510139       3.373628089586723      6.9308001888615722
   185   4      2.9133773991032776      1.6820392256232506      2.2987940834959804
   186   4 -4.3599999999999992e-14      6.7281569024930041      2.2987940834959804
   187   4      2.9265369407605446      8.4007606788632465      6.9346495093305656
   188   4      8.7369081153160959      8.4002568575232495      6.9280213460935354
   189   4      5.8267547982065553      6.7281569024930041      2.2987940834959804
   190   4       8.740132197309876      1.6820392256232506      2.2987940834959804
