(written by ASE)

190 atoms
4 atom types

0.0      11.653509596413199  xlo xhi
0.0        10.0922353537395  ylo yhi
0.0                      30  zlo zhi
                      0                       0                       0  xy xz yz

Atoms # atomic

     1   1     0.83792451980697469     0.45632950972577441      5.1595854861026185
     2   1      9.5697089415732428      5.5337718775063562      5.0840487768025575
     3   1      10.947739740741872       3.301405667671323      10.233100819987261
     4   1      3.7301644842019916      5.5267917985757515      5.1455134549094907
     5   1       8.766845813526654      3.0597532813679984      12.432834286190451
     6   1      6.7037425517389941     0.48891177970547517      5.1864150776687765
     7   1      3.9121636095426493      2.7118039138956123      10.530396220266248
     8   1      2.1013051228331325      2.3026669786677174       8.153363062293673
     9   1      5.0683634265627395      8.5609274554865866      11.171015458445888
    10   1      3.7546337913945762      4.5604180723228787                     0.5
    11   1      4.7956657921095189     0.62677511797174323      11.997421971204693
    12   1      6.6680111904978974      9.6065357491926271                     0.5
    13   1      3.0334436223317933      7.3072805728978043      9.3977667301128278
    14   1      3.2287719751448121      9.3168108518557915      11.197034072359775
    15   1     0.88388917695847158      4.0091075149697994      11.165076966579484
    16   1      5.7477199494807412       5.764679859550955      8.1773601974862729
    17   1   -0.054753667643959489      5.6266112929635099      8.3993185539134174
    18   1      1.0722556817002369      5.8199060076591245      12.712346245683927
    19   1      8.6651844311898252     0.61057039494409837      8.4578754520566601
    20   1      8.9210374849249625     0.21590463584672287      11.230137082658802
    21   1      2.7789881859474894     0.75776764499354532      8.1328771180950064
    22   1      11.237625631890761      1.5648726662522041      11.398541389500179
    23   1       5.918353447263816      2.9650648418940508      10.607124777382348
    24   1      6.6656747630207986      2.8797277837324504      3.8043095294545042
    25   1     0.83891996481419984      2.8797277837324504      3.8043095294545042
    26   1      9.5790521621241194       7.925845460602198      3.8043095294545042
    27   1 -4.3599999999999992e-14      3.3640784512465056      2.4321633756321481
    28   1      2.9273676962814319       1.759406318250716       6.802286894175781
    29   1      2.8993996740951333      4.0673794993989265      5.1311474462975708
    30   1       8.740132197309876      6.0175168859635022                     0.5
    31   1 -4.3599999999999992e-14     0.97139920909375399                     0.5
    32   1      5.8267547982065553     0.97139920909375399                     0.5
    33   1      5.0285734751549089     0.49869733746404982      5.1795608252631276
    34   1      6.9996125394128335      4.3501652140021259      10.281532515887386
    35   1      1.0202209772504487      2.3707894385779307      12.369820932747558
    36   1       8.740132197309876      9.3788974631443622      3.8043095294545042
    37   1     0.84125639229129867      9.6065357491926271                     0.5
    38   1      7.8860378184744233      5.5133253206566275      5.1599265021365976
    39   1      5.8267547982065553      3.3640784512465056      2.4321633756321481
    40   1      9.1520552065862386      8.5710447206737683      10.612925519354091
    41   1       8.740132197309876      8.4101961281162527      2.4321633756321481
    42   1      2.9133773991032776      8.4101961281162527      2.4321633756321481
    43   1      9.5813885896011737      4.5604180723228787                     0.5
    44   1      2.9133773991032776      9.3788974631443622      3.8043095294545042
    45   1      2.5970233992221852      5.6838435411408179      10.268651823289662
    46   1      7.9590925840841358      2.1592387156282751      8.4310204420445451
    47   1      11.263297630633556      8.6715267287970121      11.627013200909714
    48   1      5.1249187203472415       7.334770606883743      8.1337554010210891
    49   1      7.0893061190127877      9.5928676654678071      12.417764137785886
    50   1      10.703723105138375      7.0559801220434917      8.2248220247897539
    51   1      2.4752049543216357      1.1281849524027077      10.858010055276031
    52   1      2.0744574342890343       7.925845460602198      3.8043095294545042
    53   1      2.9133773991032785      5.0461176768697538       1.866758950346576
    54   1      5.8267547982065997                       0       1.866758950346576
    55   1  8.9999999999999983e-16                       0       1.866758950346576
    56   1      7.8988758050185357      4.5604180723228804                     0.5
    57   1      2.0721210068119365      4.5604180723228804                     0.5
    58   1      10.812253204121857      9.6065357491926289                     0.5
    59   1      2.9133773991032776      6.0175168859635022                     0.5
    60   1      10.813106719207108     0.45309191797202708      5.1448109858071822
    61   1      2.0494093633770563      5.5155446496692155      5.2208878666891971
    62   1      8.4432570860628839      5.3395079474623985       10.75920722148796
    63   1      8.7518480777090772      4.0718100508422932      5.1019882379462835
    64   1      8.8032611320242555       5.012925758100331      6.4822921728987231
    65   1      2.9620159561241595      4.9719649784173638       6.536455169617696
    66   1      5.8626534103548371   -0.030112408457832432      6.5402342347237425
    67   1   -0.024786217385587429   -0.057104964225967364      6.5149787222254867
    68   1      5.9534091446866775      6.7185795531141661      6.8145468219160348
    69   1      5.7828675808216774      6.8832272364631315      11.111666540603659
    70   1   -0.044609463667514809      6.4726271056655698      6.9493973820570423
    71   1      8.6419408844530281      1.5225749361971579      7.0541323756472556
    72   1      10.814589631598912      2.8797277837324491      3.8043095294545042
    73   1      7.1128022717411232     0.72934084734302262      10.955635171659043
    74   1 -4.3599999999999992e-14      4.3327797862746138      3.8043095294545042
    75   1      4.9854984059152576      9.6065357491926289                     0.5
    76   1      3.7522973639175206       7.925845460602198      3.8043095294545042
    77   1      8.7401321973098778      5.0461176768697538       1.866758950346576
    78   1      3.7725144347090831      2.1332783281864898      8.2141045830484902
    79   1       4.909390202469301      5.4340754171842862      12.196279845504307
    80   1      9.6399242833567627      1.9870287592930942      8.3068706564369812
    81   1      1.1096064798021044      8.9002370805680524      10.265673592512645
    82   1     0.72642245750641776      7.1146273285630537      8.2942132973322966
    83   1      8.1181344670498738       7.887245973697822      12.157589151455726
    84   1      6.7663713906656104      7.1025923698490745       8.237382440934633
    85   1  -0.0030597355557732482      9.0899997074267063      5.1258008487307318
    86   1      5.8267547982065553      4.3327797862746138      3.8043095294545042
    87   1      5.8641597910012742      9.1281154379819363      5.1363477003619735
    88   1      7.9012122324956335       7.925845460602198      3.8043095294545042
    89   1      10.482490514676096      5.7321407142106624      11.779267957522121
    90   1      4.9878348333923119      2.8797277837324491      3.8043095294545042
    91   1      2.9865285902065177      5.0241933547150639       12.65833301284256
    92   2      2.9073414356456726      5.0257702613728119      5.5099841141512309
    93   2      8.7484393112512198      5.0378633995218696       5.456313323778784
    94   2      5.8267547982065997                       0     0.84163042435634416
    95   2   -0.078338631014985796      6.5668937735280322      7.9747605621100952
    96   2      8.7261000029769029      1.5693825624863953      8.0809481953682134
    97   2      8.7401321973098778      5.0461176768697538     0.84163042435634416
    98   2      2.9133773991032785      5.0461176768697538     0.84163042435634416
    99   2      5.8612429586484831  -0.0062550668912703649      5.5110935797514831
   100   2       8.740132197309876      8.4101961281162527      3.4593945362622507
   101   2      5.8956792647816831      6.7254880795384979      7.8422616126689242
   102   2      2.8992228258114503      1.7360424856969423      7.8323213621618901
   103   2      5.8267547982065553      3.3640784512465056      3.4593945362622507
   104   2 -4.3599999999999992e-14      3.3640784512465056      3.4593945362622507
   105   2  -0.0022196098040103535   -0.039053877714655447      5.4860895636000926
   106   2  8.9999999999999983e-16                       0     0.84163042435634416
   107   2      2.9133773991032776      8.4101961281162527      3.4593945362622507
   108   3      10.321373271013492      3.9780815115582908      7.6770529853710645
   109   3      2.9133773991032772      3.0917580036970467      3.3010724808649616
   110   3 -4.3599999999999992e-14      8.1378756805668004      3.3010724808649616
   111   3      5.8267547982065553      8.1378756805668004      3.3010724808649616
   112   3       4.132202971906807      2.3857284981765692      1.3166483637921624
   113   3      9.9589577701134058      2.3857284981765692      1.3166483637921624
   114   3      1.2188255728034858      7.4318461750463234      1.3166483637921624
   115   3      7.0455803710100851      7.4318461750463234      1.3166483637921624
   116   3      4.1602994042233403      9.1585210533685597      7.7731988293689049
   117   3      5.7931049208840175      7.6426132859620211      10.432738529758002
   118   3      4.4885064439613558      9.0961322181815074       11.78498003321617
   119   3      2.8859813808987091      7.1117997525853927      7.9569219924642063
   120   3      4.6434269948068732      4.1342717880900395      7.6262996855641836
   121   3      7.5844979740507803      9.1257344842072836      7.7226331464323543
   122   3      1.7382119256772965      9.2279724817077735      7.8002983498863241
   123   3      7.5395720867805336      7.7064929410932175      5.7655561548604455
   124   3      1.6885623332880384      7.7100462251237074      5.9114382037643134
   125   3       8.721202252318939        7.52266424662864      11.475093321917578
   126   3      6.8921507452836881      3.0947387565201678      10.813276582524098
   127   3      2.0948570558743413      4.9253540672747036      9.9573062226266273
   128   3      10.854921878336761      9.1867469007884086      12.329550748788224
   129   3       4.134229673107142     0.97717983658635332      3.3010724808649616
   130   3       8.740132197309876      3.0917580036970467      3.3010724808649616
   131   3      4.6422317549221539      1.5372030235341625      12.251167254445013
   132   3      2.3756426685062899      9.7322321604775066       10.89230823753806
   133   3      5.8267547982065553      5.3207783573863692      1.3166483637921624
   134   3      9.2374313749177901      5.0456908620495655      11.276102775582215
   135   3      5.9287252888410737      4.7228826563266191      5.7140789091888076
   136   3      11.408928848451412      4.1414946539462179      10.054081835221551
   137   3       8.777979152660869      7.0203188936500922      7.7556871426556739
   138   3      1.6945518262997477      2.3857284981765683      1.3166483637921624
   139   3      9.9632582584699918      7.6580821779150696      5.7262059727550412
   140   3      9.9609844713137417     0.97717983658635332      3.3010724808649616
   141   3      7.0476070722104192      6.0232975134561082      3.3010724808649616
   142   3      10.051411357418585      9.0973901536227775      7.6404299201070707
   143   3      1.1753027986237068      3.9979029160841275      7.6616550757726039
   144   3      7.0816738434618225      3.9554699157192323      7.7176914108704704
   145   3      2.9344182277634334      9.8259848667939931      5.7657186917293446
   146   3      8.7570411630141738      9.8217741422802423      5.7348981206518221
   147   3      4.5978803972363194      2.6483469787981933      5.7229142759565343
   148   3      10.344489700107223      2.5776069691101298      5.7226517780669921
   149   3      4.6079292254030255      7.4318461750463234      1.3166483637921624
   150   3      1.6925251250994144     0.97717983658635321      3.3010724808649616
   151   3      10.550804639662422      1.8860922245092762      10.753886323489274
   152   3      8.3779984868370629     0.76645971069360896      11.884113048802853
   153   3      1.9785317276631791      5.9395280317339649      13.087129719680464
   154   3      7.1502303960280784      5.3090595732589421      10.023232773604573
   155   3     0.75968895071605846      1.4136735400629268      12.287020580119012
   156   3       3.135119156701561      7.1818080268277908      10.378914016937001
   157   3      7.5213066245063471      2.3857284981765683      1.3166483637921624
   158   3      2.6026346776204488      2.0359222327616733      10.522758563525857
   159   3      10.434684023609625      7.4318461750463234      1.3166483637921624
   160   3      5.7458036811662252      1.9364112907779247      7.7200408914605063
   161   3    -0.06379315668996835      1.8749703820541148      7.7268745465461377
   162   3      1.2208522740038206      6.0232975134561082      3.3010724808649616
   163   3      7.0436529725944554      2.5521459634096617      5.7500426774338109
   164   3      1.1603397111475828       2.570750638536544      5.7262515256662807
   165   3      4.0937764770672507      7.6749094077744591      5.8822631389174669
   166   3      4.6059025242026905      6.0232975134561082      3.3010724808649616
   167   3       7.123044600894719      8.7530759664942597      12.891899534240943
   168   3      1.1092240935632141      3.7974744197863259       12.09983127419328
   169   3      9.2670582665699115      9.4477923179756882      10.157501069228681
   170   3      9.1665526080339816      3.0823453084900367      13.293013601321377
   171   3    -0.10178480702406929       4.734704640984015      5.7438431799411767
   172   3      4.6653465964828902      3.1375631425164583      10.059094819176702
   173   3      11.289062504938189      6.2035638817750769      12.137771491221912
   174   3      3.8288932070113408      4.5756508550624844      12.302191515138833
   175   3      6.3774556536483749     0.27455874871620273      10.516240287697761
   176   3      5.7044292690548719      6.0522233178518734      12.108377175446035
   177   3     0.38274473002575288      8.2818736110417355       10.17431581011639
   178   3 -4.3599999999999992e-14      5.3207783573863692      1.3166483637921624
   179   3       8.740132197309876      0.2746606805166148      1.3166483637921624
   180   3      2.9133773991032776      0.2746606805166148      1.3166483637921624
   181   3      10.432657322409289      6.0232975134561082      3.3010724808649616
   182   3       7.519279923306013     0.97717983658635321      3.3010724808649616
   183   4   -0.082180749101881834      3.2916616964578731      6.7419897123122565
   184   4      5.8453027324742921      3.3207381199641657      6.7363107455305942
   185   4      2.9133773991032776      1.6820392256232506      2.2987940834959804
   186   4 -4.3599999999999992e-14      6.7281569024930041      2.2987940834959804
   187   4      2.9148843264384015      8.4826964106517568      6.8213803113997855
   188   4      8.7844588061189803      8.4156062810436172      6.7465692775795443
   189   4      5.8267547982065553      6.7281569024930041      2.2987940834959804
   190   4       8.740132197309876      1.6820392256232506      2.2987940834959804
