(written by ASE)

190 atoms
4 atom types

0.0      11.653509596413199  xlo xhi
0.0        10.0922353537395  ylo yhi
0.0                      30  zlo zhi
                      0                       0                       0  xy xz yz

Atoms # atomic

     1   1     0.83666545255014002     0.48155634526938634      5.2166898861428344
     2   1      9.5836603670424321      5.5491217610172834      5.1861098437527318
     3   1      10.671996851036194      3.6003400488449468       10.24760838092924
     4   1      3.7488481724548994      5.5350750168226073      5.2222961161082146
     5   1       8.403653850826835      3.1106809162735121      11.921166452078987
     6   1      6.6771462801973662     0.48238231283741961      5.2221307485877819
     7   1      3.3469489422016756      3.0400719930671336      10.322270175442286
     8   1      2.0188744198256074      2.1237739577749437       8.081838222648317
     9   1      5.2118825956131358      8.8782240634308174      11.059667878049023
    10   1      3.7546337913945762      4.5604180723228787                     0.5
    11   1      4.8751767694019028     0.58499929968146025       12.09488646373832
    12   1      6.6680111904978974      9.6065357491926271                     0.5
    13   1      3.3216401599052272      7.6959198841650522      10.159180023430652
    14   1      2.9082229828974282      9.0994991016079307        11.3240531994559
    15   1     0.79082489929139232      3.9877531174111982      10.924883999451302
    16   1       5.749067684862835       5.703331044908551      8.0863832800209661
    17   1   -0.037256203503976064      5.6966051845711076      8.3689538853221332
    18   1      1.0944042890371153      6.0891524666083852      12.330061243838994
    19   1       8.748088892456348     0.67436106624432468      8.4270680836436718
    20   1      9.1269606100093608     0.57672829376631995      11.242740859835985
    21   1       2.837726271511547     0.70366099531687365      8.1128530177707816
    22   1      10.722950322427044      1.6173742967214013      11.365499187264264
    23   1      5.9002097040619947      2.6631669816628851      10.886065514760793
    24   1      6.6656747630207986      2.8797277837324504      3.8043095294545042
    25   1     0.83891996481419984      2.8797277837324504      3.8043095294545042
    26   1      9.5790521621241194       7.925845460602198      3.8043095294545042
    27   1 -4.3599999999999992e-14      3.3640784512465056      2.4321633756321481
    28   1      2.9045313355329805      1.6724506563344013      6.7369137380261535
    29   1       2.905684460499951      4.0744777845684386      5.2293161681688067
    30   1       8.740132197309876      6.0175168859635022                     0.5
    31   1 -4.3599999999999992e-14     0.97139920909375399                     0.5
    32   1      5.8267547982065553     0.97139920909375399                     0.5
    33   1      4.9938473346596153     0.48568661904020888      5.2214716181355181
    34   1      6.8689146156964078      4.3745034509437017       10.02367889851986
    35   1       1.147272178626628      1.6662960667388935      12.022261107938679
    36   1       8.740132197309876      9.3788974631443622      3.8043095294545042
    37   1     0.84125639229129867      9.6065357491926271                     0.5
    38   1       7.903538861373657      5.5340136067557442       5.196834216180223
    39   1      5.8267547982065553      3.3640784512465056      2.4321633756321481
    40   1      8.9726575073151231      8.7645871056025531      10.707534603000534
    41   1       8.740132197309876      8.4101961281162527      2.4321633756321481
    42   1      2.9133773991032776      8.4101961281162527      2.4321633756321481
    43   1      9.5813885896011737      4.5604180723228787                     0.5
    44   1      2.9133773991032776      9.3788974631443622      3.8043095294545042
    45   1      2.5462673497838502      5.8662664892546434      10.330185701560792
    46   1       7.913235106363258      2.1512652202614051      8.3942197232420579
    47   1      10.783142742640791      8.7205589662683174       11.28053604078605
    48   1      4.9524439671697564      7.1805936976404032      8.0666044463485473
    49   1      6.9661724616648186      9.1491446690849134      11.662821910179584
    50   1       10.80809829345586      7.1790185777497388      8.3005540921851431
    51   1      3.0010799275960696      1.1471214210404821      10.892950741595319
    52   1      2.0744574342890343       7.925845460602198      3.8043095294545042
    53   1      2.9133773991032785      5.0461176768697538       1.866758950346576
    54   1      5.8267547982065997                       0       1.866758950346576
    55   1  8.9999999999999983e-16                       0       1.866758950346576
    56   1      7.8988758050185357      4.5604180723228804                     0.5
    57   1      2.0721210068119365      4.5604180723228804                     0.5
    58   1      10.812253204121857      9.6065357491926289                     0.5
    59   1      2.9133773991032776      6.0175168859635022                     0.5
    60   1      10.822414150633451     0.48255231287093153      5.2269081562455249
    61   1      2.0663705212796368      5.5246268650511272      5.2278485944965052
    62   1      8.4137240910452711      5.5084642567236539      10.984357325520618
    63   1      8.7405141283423369      4.0813354332645684      5.1942156958780945
    64   1      8.7724937013730848      5.0420265469410142      6.5595663825351522
    65   1      2.9168837080924681      5.0420941132813599      6.5980322369040518
    66   1       5.839936649972465   -0.012199184739274577      6.5900613331068989
    67   1  -0.0045524201345186772   -0.021263940663057403      6.5921587851595378
    68   1      5.8129518479903339      6.6736223183431225      6.7525846231633668
    69   1      6.1938418604379066      7.0524374790389555      10.685113308612328
    70   1    0.016924137208740985      6.6399887315746602      6.9707628505394172
    71   1      8.7383435292058955        1.63112305024473      7.0498927142694843
    72   1      10.814589631598912      2.8797277837324491      3.8043095294545042
    73   1      7.0204670844535242     0.83793574900065448      10.855611742299351
    74   1 -4.3599999999999992e-14      4.3327797862746138      3.8043095294545042
    75   1      4.9854984059152576      9.6065357491926289                     0.5
    76   1      3.7522973639175206       7.925845460602198      3.8043095294545042
    77   1      8.7401321973098778      5.0461176768697538       1.866758950346576
    78   1        3.70936797692455      2.1316937655279027      8.1615309200391195
    79   1      4.8672599666277057       5.613753792384701       11.64073189858275
    80   1      9.6181842610763351      2.1104272852925163      8.3848645666124391
    81   1     0.99492731156179215      8.3956262837212297      10.728122213239454
    82   1     0.81658183807265983      7.1381488431619085       8.364711165890208
    83   1      8.0387885941568591      7.6556831789227058      11.991859774836087
    84   1      6.6575297763210184      7.1468060838562257      8.1125908234912085
    85   1  -0.0024781991301027861      9.1067600612202995      5.2201171947775009
    86   1      5.8267547982065553      4.3327797862746138      3.8043095294545042
    87   1      5.8299889260186299      9.1228594016447317      5.2103600929527367
    88   1      7.9012122324956335       7.925845460602198      3.8043095294545042
    89   1      10.668023287078816      5.7073360806723956      11.500418776306059
    90   1      4.9878348333923119      2.8797277837324491      3.8043095294545042
    91   1      3.4797550585582995      4.4945014366796139      11.888041441130579
    92   2      2.9121089571325376      5.0460101935861044      5.5686208775680015
    93   2      8.7490005392508081      5.0540447421910581        5.53032813483693
    94   2      5.8267547982065997                       0     0.84163042435634416
    95   2   -0.012759585160448658      6.6570586576696753      7.9977647276588808
    96   2      8.7515737050852849      1.6454303962264312      8.0804826113493817
    97   2      8.7401321973098778      5.0461176768697538     0.84163042435634416
    98   2      2.9133773991032785      5.0461176768697538     0.84163042435634416
    99   2      5.8341635848194775  -0.0016457976864876825      5.5606445511092524
   100   2       8.740132197309876      8.4101961281162527      3.4593945362622507
   101   2       5.801561805234086      6.6815723796004995      7.7778587383610391
   102   2       2.878864116923145      1.6670164299355457      7.7655409852431871
   103   2      5.8267547982065553      3.3640784512465056      3.4593945362622507
   104   2 -4.3599999999999992e-14      3.3640784512465056      3.4593945362622507
   105   2   0.0052951764898704762   -0.015016130560477996      5.5621225739976579
   106   2  8.9999999999999983e-16                       0     0.84163042435634416
   107   2      2.9133773991032776      8.4101961281162527      3.4593945362622507
   108   3      10.302217963228896       4.034548787063664      7.5262290545007522
   109   3      2.9133773991032772      3.0917580036970467      3.3010724808649616
   110   3 -4.3599999999999992e-14      8.1378756805668004      3.3010724808649616
   111   3      5.8267547982065553      8.1378756805668004      3.3010724808649616
   112   3       4.132202971906807      2.3857284981765692      1.3166483637921624
   113   3      9.9589577701134058      2.3857284981765692      1.3166483637921624
   114   3      1.2188255728034858      7.4318461750463234      1.3166483637921624
   115   3      7.0455803710100851      7.4318461750463234      1.3166483637921624
   116   3      4.1442537833689634      9.0979556760218703      7.8574958269155575
   117   3      6.5944674463459849      7.7543690112981283      10.160375115122951
   118   3      4.5862512500744073      9.1113611968583257      11.774216800412605
   119   3      2.9563771768990481      7.0266647358882217      7.8688170912599853
   120   3      4.6462698060523646      4.2086061313885192      7.6908282911876631
   121   3      7.5428569020608673      9.1267131912667967      7.7680956626559823
   122   3      1.7308468568667652      9.1592957281172502      7.7804913665166637
   123   3      7.5392675582783673      7.6790978649196413      5.8298942478805786
   124   3      1.7132599168954232       7.679820861979981      5.8638583259300487
   125   3      8.9514724295976791      7.4848589403885972      11.733132500216119
   126   3      6.7772417064508348      2.9415023990500755      10.601671712360933
   127   3      2.3718652516847296      5.0409338007691797      9.8902108530301049
   128   3      11.135114666703812      9.1483562471490938      12.053435751835838
   129   3       4.134229673107142     0.97717983658635332      3.3010724808649616
   130   3       8.740132197309876      3.0917580036970467      3.3010724808649616
   131   3      4.7023499136772937      1.5251437035711073      12.056196615626012
   132   3      2.6371959903331916      9.5521785321385302      10.520157095027573
   133   3      5.8267547982065553      5.3207783573863692      1.3166483637921624
   134   3      9.1485738317667931      5.0598324429626143      11.444653137066663
   135   3       5.974620409562327      4.7543332061986483      5.8025970422784692
   136   3       11.04668139521406      4.3814474798523513      9.8743156355223967
   137   3      8.7390549147578511      7.0523394044632157      7.8605657160005604
   138   3      1.6945518262997477      2.3857284981765683      1.3166483637921624
   139   3      9.9414230635056811      7.6425351728630941      5.7991002476083064
   140   3      9.9609844713137417     0.97717983658635332      3.3010724808649616
   141   3      7.0476070722104192      6.0232975134561082      3.3010724808649616
   142   3      10.028867422220653      9.1180616145755629      7.6814167183189763
   143   3      1.0644111865844583      4.0866438761856374      7.7558041374256952
   144   3      7.0462475596271332      4.0719228642242848      7.9061875908598003
   145   3      2.9770753073200238      9.8105204982268113      5.8095147595935313
   146   3      8.7320802827253949      9.8173307006945265      5.7850091940152213
   147   3      4.6643139875409156      2.6552801188448614      5.8382486644084697
   148   3       10.49988049851186      2.5579089725967226      5.6450141937206917
   149   3      4.6079292254030255      7.4318461750463234      1.3166483637921624
   150   3      1.6925251250994144     0.97717983658635321      3.3010724808649616
   151   3      10.631754745361691      1.7481760728071032      10.423491859687147
   152   3      8.6276646715390832     0.58982483990752532      12.066530831248388
   153   3      1.9606927993490704      5.8696725282584534      12.701165517412651
   154   3      7.0363165493298316       5.292687271343957       10.28594816437346
   155   3     0.82897828394939965     0.97748395410642752      12.598962381815632
   156   3      3.0734278815014195      7.1487979064364833      10.905985103539606
   157   3      7.5213066245063471      2.3857284981765683      1.3166483637921624
   158   3      2.4056114632954535      1.7945531562374024      10.502702504975129
   159   3      10.434684023609625      7.4318461750463234      1.3166483637921624
   160   3      5.7847706320221466      2.0252955145997014      7.8711704735062407
   161   3    -0.12738036369497885      1.9878116469160096      7.7575318013999945
   162   3      1.2208522740038206      6.0232975134561082      3.3010724808649616
   163   3      7.1308579758367481      2.6421434610063836      5.9336033400105377
   164   3      1.2564642015989242      2.6300377576821981      5.8128059265166216
   165   3      4.1476190078782853      7.7011106481056624      5.8638215490686632
   166   3      4.6059025242026905      6.0232975134561082      3.3010724808649616
   167   3      7.1080266535764061      8.9226465100757082      12.590589569013911
   168   3      1.2213122591590679      3.4176672877464669       11.55145092506204
   169   3      9.1851777334446645       9.475108003572883      10.071538970958926
   170   3      9.1494092961288533      2.9134847573530798      12.462560411138808
   171   3    0.047259522182730634      4.7360605396439954      5.6762205687480733
   172   3      4.2388908862522428      3.1550077664949638      9.9804935032510009
   173   3      11.435983284206834      6.2925150673018155      11.580353388758628
   174   3      4.0552431060023011      4.0502381614646001      12.478757775430209
   175   3      6.4421630331823945     0.34419131095513433      10.268418351775962
   176   3      5.3556584697934406      6.3968075220872249      11.908755265841503
   177   3     0.37529180586238142      8.0835642932250007      10.076448945776409
   178   3 -4.3599999999999992e-14      5.3207783573863692      1.3166483637921624
   179   3       8.740132197309876      0.2746606805166148      1.3166483637921624
   180   3      2.9133773991032776      0.2746606805166148      1.3166483637921624
   181   3      10.432657322409289      6.0232975134561082      3.3010724808649616
   182   3       7.519279923306013     0.97717983658635321      3.3010724808649616
   183   4   -0.035035688897434407      3.3404856822333437      6.7125711313386347
   184   4      5.8736439337722635      3.3814923122886529      6.8564311854288436
   185   4      2.9133773991032776      1.6820392256232506      2.2987940834959804
   186   4 -4.3599999999999992e-14      6.7281569024930041      2.2987940834959804
   187   4      2.9330289035356452      8.4184721793905428      6.8499785665702966
   188   4      8.7583170353742599      8.4085427508905362      6.8156857471369241
   189   4      5.8267547982065553      6.7281569024930041      2.2987940834959804
   190   4       8.740132197309876      1.6820392256232506      2.2987940834959804
