(written by ASE)

190 atoms
4 atom types

0.0      11.653509596413199  xlo xhi
0.0        10.0922353537395  ylo yhi
0.0                      30  zlo zhi
                      0                       0                       0  xy xz yz

Atoms # atomic

     1   1     0.84109792331610356     0.48607065211208761      5.2241742430228584
     2   1      9.5869133247060585      5.5321338254410524      5.2191395546951105
     3   1       10.51603595386373      3.4780186397508652      10.290005518080996
     4   1      3.7502111626384056      5.5313193993223013      5.2226866670232832
     5   1      8.3052880275888565      3.0363379250051228      11.693059271707932
     6   1      6.6708364925368144     0.48133143437141068      5.2185749015301033
     7   1      3.0995612440503368      2.9909615378425416      10.317887345523522
     8   1       2.072245383477306      2.1463969494508901      8.2067209003975101
     9   1      5.0614572672788194       8.961024820908353      10.878325396541939
    10   1      3.7546337913945762      4.5604180723228787                     0.5
    11   1      4.9474616962175286     0.72871675957560478      11.935836477166994
    12   1      6.6680111904978974      9.6065357491926271                     0.5
    13   1      3.6709509522703203      7.6620527222109871      10.342070615575111
    14   1      2.9318849658017752      9.0272912042869535      11.487059865887428
    15   1     0.89236249985301208      3.9476923934622299      10.896068337126518
    16   1      5.7831759911497773      5.7112417163407061      8.1615827018319322
    17   1   -0.013233583131180083      5.7431643488789019      8.4020887532824311
    18   1      1.0479470092596195      6.0753105407122199      11.864501486566159
    19   1      8.7438299583910855     0.68684187762184667      8.4194547354449369
    20   1      8.9874169544536127     0.79549039872617944      11.127295262402598
    21   1      2.8669110993680338     0.69750706026707243      8.2106767254010506
    22   1      10.637491675107281       1.700622434642084      11.288534597852451
    23   1      5.9103928458706418      2.7250000491895117       10.72839127933038
    24   1      6.6656747630207986      2.8797277837324504      3.8043095294545042
    25   1     0.83891996481419984      2.8797277837324504      3.8043095294545042
    26   1      9.5790521621241194       7.925845460602198      3.8043095294545042
    27   1 -4.3599999999999992e-14      3.3640784512465056      2.4321633756321481
    28   1      2.9112327988696607      1.6808379626968282      6.8148041853583461
    29   1      2.9105185332015795      4.0747615835855058       5.224589162469691
    30   1       8.740132197309876      6.0175168859635022                     0.5
    31   1 -4.3599999999999992e-14     0.97139920909375399                     0.5
    32   1      5.8267547982065553     0.97139920909375399                     0.5
    33   1      4.9830217639558692     0.48479351904390494      5.2211754120709255
    34   1      6.8395039256995185      4.5196449060871426      10.184971268542505
    35   1      1.1328313329138016      1.6654841160450533      11.854851419982582
    36   1       8.740132197309876      9.3788974631443622      3.8043095294545042
    37   1     0.84125639229129867      9.6065357491926271                     0.5
    38   1      7.9010852862785805      5.5335555248109864      5.2137309084720362
    39   1      5.8267547982065553      3.3640784512465056      2.4321633756321481
    40   1       8.895498714643125       9.047419338532384      10.849445788577981
    41   1       8.740132197309876      8.4101961281162527      2.4321633756321481
    42   1      2.9133773991032776      8.4101961281162527      2.4321633756321481
    43   1      9.5813885896011737      4.5604180723228787                     0.5
    44   1      2.9133773991032776      9.3788974631443622      3.8043095294545042
    45   1      2.7273059599810847      5.9018186469829779      10.554362426554341
    46   1      7.9022288234787084      2.1585120993150184      8.3994362837398455
    47   1       10.85431660919682      8.6163927221974621      11.110226551801015
    48   1      4.9807600784308912      7.1805674869765088      8.1673872206304825
    49   1      7.1028678749602205      9.1452900239448844      11.267349408009544
    50   1      10.813009161212952      7.2252807392845799      8.3606808767323546
    51   1      3.2977246545794552      1.1479816184090217      10.708472607510513
    52   1      2.0744574342890343       7.925845460602198      3.8043095294545042
    53   1      2.9133773991032785      5.0461176768697538       1.866758950346576
    54   1      5.8267547982065997                       0       1.866758950346576
    55   1  8.9999999999999983e-16                       0       1.866758950346576
    56   1      7.8988758050185357      4.5604180723228804                     0.5
    57   1      2.0721210068119365      4.5604180723228804                     0.5
    58   1      10.812253204121857      9.6065357491926289                     0.5
    59   1      2.9133773991032776      6.0175168859635022                     0.5
    60   1      10.813429170556391     0.49066853967339247      5.2251088114586519
    61   1      2.0668255947234995      5.5314155919233796      5.2260376241226441
    62   1      8.7644008739059274      5.4463913280637009      10.909193935540745
    63   1      8.7498936461048427        4.07434689704096      5.2188098918005279
    64   1      8.7632672057346515      5.0428475529808852      6.5796208548397681
    65   1      2.9052637596965645      5.0481885763766545      6.5946956193687569
    66   1      5.8302416616634094  -0.0063448672498626303      6.5895545969608111
    67   1  -0.0016005752714486434   -0.002163577138208105      6.5917350793038905
    68   1      5.8017837010470172      6.6738310867914299      6.7855090310050752
    69   1      6.2707782128436236       6.822271699191262      10.627265694481789
    70   1    0.027143998607033922      6.7047277816946895      7.0302365554949819
    71   1       8.757156590386769      1.6723575688675287      7.0573970363006522
    72   1      10.814589631598912      2.8797277837324491      3.8043095294545042
    73   1      7.0346136727766364     0.93324327323448686      11.089426937634036
    74   1 -4.3599999999999992e-14      4.3327797862746138      3.8043095294545042
    75   1      4.9854984059152576      9.6065357491926289                     0.5
    76   1      3.7522973639175206       7.925845460602198      3.8043095294545042
    77   1      8.7401321973098778      5.0461176768697538       1.866758950346576
    78   1      3.6944169467788952      2.1544320991331714      8.2355030359433652
    79   1      4.8929202359646329      5.6825797668485301      11.186043022574982
    80   1      9.6053111222169782      2.1500983067681938      8.3955404057535699
    81   1      0.8042506763510705      8.2706075513116435      10.841134296529782
    82   1     0.82023878528360361      7.1965463612767797      8.4332652011281883
    83   1      7.9359600053998394      7.4391628986796405      11.741476578637137
    84   1      6.6370449658193804       7.152459566599771      8.1772183546658024
    85   1   0.0019953386754356255       9.119502037047031      5.2234609974233921
    86   1      5.8267547982065553      4.3327797862746138      3.8043095294545042
    87   1      5.8277922401211564      9.1231667552225471      5.2188458031273397
    88   1      7.9012122324956335       7.925845460602198      3.8043095294545042
    89   1       10.52185582093232      5.9377696727891633      11.045863849516573
    90   1      4.9878348333923119      2.8797277837324491      3.8043095294545042
    91   1      3.7957603233958421       4.463719888199547      11.763947826453258
    92   2      2.9103755308759705      5.0462451390355163      5.5650728341075704
    93   2      8.7413842829863597      5.0485915825809782       5.550678173745359
    94   2      5.8267547982065997                       0     0.84163042435634416
    95   2  -0.0026061986802947755      6.7098810754265781      8.0531020813281771
    96   2      8.7510677063947053      1.6658463347996244       8.087598447472363
    97   2      8.7401321973098778      5.0461176768697538     0.84163042435634416
    98   2      2.9133773991032785      5.0461176768697538     0.84163042435634416
    99   2      5.8263766140517719   0.0018338100178978036       5.560146312128512
   100   2       8.740132197309876      8.4101961281162527      3.4593945362622507
   101   2      5.8012424764594472      6.6772204306467238      7.8186129534034317
   102   2      2.8906365525744877      1.6552672326548561      7.8381153948811617
   103   2      5.8267547982065553      3.3640784512465056      3.4593945362622507
   104   2 -4.3599999999999992e-14      3.3640784512465056      3.4593945362622507
   105   2  0.00048293187831097698  -0.0014424530547507324      5.5618961208026398
   106   2  8.9999999999999983e-16                       0     0.84163042435634416
   107   2      2.9133773991032776      8.4101961281162527      3.4593945362622507
   108   3      10.264086913293887      4.0935039443759429      7.4936778014147869
   109   3      2.9133773991032772      3.0917580036970467      3.3010724808649616
   110   3 -4.3599999999999992e-14      8.1378756805668004      3.3010724808649616
   111   3      5.8267547982065553      8.1378756805668004      3.3010724808649616
   112   3       4.132202971906807      2.3857284981765692      1.3166483637921624
   113   3      9.9589577701134058      2.3857284981765692      1.3166483637921624
   114   3      1.2188255728034858      7.4318461750463234      1.3166483637921624
   115   3      7.0455803710100851      7.4318461750463234      1.3166483637921624
   116   3      4.1576222345530685      9.0889178252624632      7.9218117421533458
   117   3      6.6074033295268428       7.608060845636019      10.164813560853577
   118   3      4.8674948139754681      9.2440126735077701      11.769263729351406
   119   3      2.9438075561097961      7.0220279286753833      7.9032402551463763
   120   3      4.6538411479176336      4.1523787929735194      7.8206635282530685
   121   3      7.5017658477995299      9.1180908262829252      7.8382799339980682
   122   3      1.6938619621635698      9.1320017359634331      7.8316399584084628
   123   3      7.5279607536008699      7.6874630348973865       5.889228101409218
   124   3      1.7175529149665194      7.6774358883602618      5.9117271448094675
   125   3      8.8790680766470338       7.456361536277055       11.89274924268093
   126   3      6.8604529466652027      2.8527744130732997      10.687485103852289
   127   3      2.6791518550175248      5.2351422910667758      9.8446838122249947
   128   3      10.936036990740021      9.0013862281957291      11.972311478748676
   129   3       4.134229673107142     0.97717983658635332      3.3010724808649616
   130   3       8.740132197309876      3.0917580036970467      3.3010724808649616
   131   3      4.5839736104500517      1.5937082908835043      12.147052299460647
   132   3      2.8192108307584882      9.1854873877059795      10.554710414693874
   133   3      5.8267547982065553      5.3207783573863692      1.3166483637921624
   134   3      9.2405111056983866      5.1546204549582786      11.665231330924025
   135   3      5.8792058007135992      4.7603582437112557      5.8817111389292975
   136   3      10.862770824498002       4.299884620696111      9.8967330106298146
   137   3      8.7410776546296276      7.0111165277836678      7.9089959790795392
   138   3      1.6945518262997477      2.3857284981765683      1.3166483637921624
   139   3      9.9417616734882071       7.679600989808991      5.8959906914438349
   140   3      9.9609844713137417     0.97717983658635332      3.3010724808649616
   141   3      7.0476070722104192      6.0232975134561082      3.3010724808649616
   142   3      10.005504599868974      9.1055587650088654      7.8006602183377938
   143   3      1.1486494671991141      4.0502120514421067       7.854771225131711
   144   3      7.0481238113976019      4.0826986402161047      7.9706736379118688
   145   3       2.954420761821873       9.797971840483596      5.9002064156856964
   146   3      8.7271692894711137      9.8139964436241076      5.8954040203488223
   147   3      4.6279249689127191      2.6678032797108622      5.9108161548441691
   148   3      10.477030348104622      2.5571499307506964       5.780351087755605
   149   3      4.6079292254030255      7.4318461750463234      1.3166483637921624
   150   3      1.6925251250994144     0.97717983658635321      3.3010724808649616
   151   3      10.818031482199443       2.037204891648174      10.421623524036121
   152   3      8.7503287137346106     0.69183594444263641      12.040405758842432
   153   3      1.8093591137042027      6.0821425815613477      12.454202729785568
   154   3      6.8096346736438766      5.3331227176317766      10.671143093217101
   155   3     0.86789574685413751     0.96441292805517731      12.448254455229643
   156   3      3.1078253324114118      7.1432530235000886      10.893844818016488
   157   3      7.5213066245063471      2.3857284981765683      1.3166483637921624
   158   3      2.4602350972876601       1.247469615220026      10.270698884602897
   159   3      10.434684023609625      7.4318461750463234      1.3166483637921624
   160   3      5.8247503412966264      1.9847444202662945      7.9151553861360604
   161   3   -0.012775441855056502      1.9810464120143185      7.8496583076071573
   162   3      1.2208522740038206      6.0232975134561082      3.3010724808649616
   163   3      7.0663472326061596      2.6792112080900843      5.9489824286919619
   164   3      1.2442847629542697      2.6430034207475699      5.8445082989010579
   165   3      4.1387322957280395      7.7040107496390373      5.8963010472024004
   166   3      4.6059025242026905      6.0232975134561082      3.3010724808649616
   167   3      7.0641095938336891      8.8957914743775017      12.194128148981038
   168   3      1.0860699656893218      3.3490795501010311       11.60820550599567
   169   3       9.070710667301455      9.3367516877421988      9.9509014294515801
   170   3      9.1026229283777553      2.9543262063934286      12.197206907704709
   171   3     0.08378690856278509      4.7750538223035512      5.8044714287482355
   172   3      3.8502570597281114       3.241626621635715      9.7911714367860814
   173   3      11.224692090213361      5.9894509829722864      11.686526870785983
   174   3      4.1107222293764725      3.8122859336408745      12.366059348505274
   175   3       6.546888170719237     0.55083034753324245      10.353312307317884
   176   3      5.0526592716655552      6.4171970290715921      11.765012345595544
   177   3     0.57212070900594514      8.0588596018408101       9.955160008661208
   178   3 -4.3599999999999992e-14      5.3207783573863692      1.3166483637921624
   179   3       8.740132197309876      0.2746606805166148      1.3166483637921624
   180   3      2.9133773991032776      0.2746606805166148      1.3166483637921624
   181   3      10.432657322409289      6.0232975134561082      3.3010724808649616
   182   3       7.519279923306013     0.97717983658635321      3.3010724808649616
   183   4  -0.0097603340643738906      3.3542892278074663      6.8118593987098279
   184   4      5.8392919045039529      3.3769030093120977      6.9196142525428597
   185   4      2.9133773991032776      1.6820392256232506      2.2987940834959804
   186   4 -4.3599999999999992e-14      6.7281569024930041      2.2987940834959804
   187   4       2.919756421077913      8.4053656290138647      6.9153446714351743
   188   4      8.7429434522135487      8.4048241761146638      6.9096445551755821
   189   4      5.8267547982065553      6.7281569024930041      2.2987940834959804
   190   4       8.740132197309876      1.6820392256232506      2.2987940834959804
