(written by ASE)

190 atoms
4 atom types

0.0      11.653509596413199  xlo xhi
0.0        10.0922353537395  ylo yhi
0.0                      30  zlo zhi
                      0                       0                       0  xy xz yz

Atoms # atomic

     1   1     0.84389891012380891     0.45969734223223779      5.2092091068710857
     2   1      9.5836353945558344      5.5422074060343114      5.1556783126755041
     3   1      10.704177923476147      3.5635643465135738       10.17787932187967
     4   1      3.7431816584472282      5.5277837142559711      5.2085625350500262
     5   1       8.492519925998371      3.1331813575270493      12.070974618975198
     6   1      6.6889398682280996     0.48128820067447181      5.2193376016496984
     7   1      3.5934019364103085       2.958516799217962      10.323003849185422
     8   1      2.0182423526205859      2.1704962132563508      8.0707388099653485
     9   1      5.2413555163542407      8.8406631449319839       11.14482302410646
    10   1      3.7546337913945762      4.5604180723228787                     0.5
    11   1       4.824647180290957     0.50840874607584119      12.107228185655787
    12   1      6.6680111904978974      9.6065357491926271                     0.5
    13   1      3.1160120397828965      7.6747648447380445      9.9623103668288948
    14   1      2.9585349507624485       9.238176006624828       11.25198725477026
    15   1     0.80103157306381945      4.0084096371891516       10.90635377847968
    16   1      5.7504964244776584      5.7260624016940831      8.1031974401033828
    17   1    -0.04945031089688362      5.6699734029129658      8.3360191210171379
    18   1      1.1108282899129036      5.9924249156431904      12.529096843927016
    19   1      8.7325163813186713     0.64728690936207289       8.433120562304822
    20   1      9.1372477961312129     0.36064315937238833      11.344832073540351
    21   1       2.830832621067068     0.67561209150251944      8.0820126877332044
    22   1      10.854554768513248      1.5618433922102259      11.398661876830445
    23   1       5.828989432477397      2.7130865969425733      10.865938660171231
    24   1      6.6656747630207986      2.8797277837324504      3.8043095294545042
    25   1     0.83891996481419984      2.8797277837324504      3.8043095294545042
    26   1      9.5790521621241194       7.925845460602198      3.8043095294545042
    27   1 -4.3599999999999992e-14      3.3640784512465056      2.4321633756321481
    28   1      2.9226432939723539      1.6791092321280223      6.7593492023542732
    29   1      2.9145373994912349      4.0733365648798214      5.2180393271224474
    30   1       8.740132197309876      6.0175168859635022                     0.5
    31   1 -4.3599999999999992e-14     0.97139920909375399                     0.5
    32   1      5.8267547982065553     0.97139920909375399                     0.5
    33   1      5.0046296949224081     0.49063033211612495      5.2201899700379517
    34   1      6.8965644681132714      4.3883675517665761      10.053392841829737
    35   1      1.2070705858239024      1.8336150819882344      12.104744720717667
    36   1       8.740132197309876      9.3788974631443622      3.8043095294545042
    37   1     0.84125639229129867      9.6065357491926271                     0.5
    38   1      7.8970689044526337      5.5380280673027027       5.191677931317936
    39   1      5.8267547982065553      3.3640784512465056      2.4321633756321481
    40   1      9.0094351646395712      8.6256634731171449      10.602017717090947
    41   1       8.740132197309876      8.4101961281162527      2.4321633756321481
    42   1      2.9133773991032776      8.4101961281162527      2.4321633756321481
    43   1      9.5813885896011737      4.5604180723228787                     0.5
    44   1      2.9133773991032776      9.3788974631443622      3.8043095294545042
    45   1      2.4613268331953981      5.8492153556746835      10.253045066591422
    46   1      7.9237417743697192      2.1448821643858693      8.3988972711212018
    47   1      10.869733734142594      8.7296602475833058      11.391851027818319
    48   1      4.9904598551082415      7.2159270739192438      8.0728301758990142
    49   1      6.9339939532148538      9.2285599856494311      11.945244792756048
    50   1      10.783971875807937      7.1450775617588533      8.2679546995766184
    51   1      2.8577589884658323      1.1590501181524655      10.896952151888415
    52   1      2.0744574342890343       7.925845460602198      3.8043095294545042
    53   1      2.9133773991032785      5.0461176768697538       1.866758950346576
    54   1      5.8267547982065997                       0       1.866758950346576
    55   1  8.9999999999999983e-16                       0       1.866758950346576
    56   1      7.8988758050185357      4.5604180723228804                     0.5
    57   1      2.0721210068119365      4.5604180723228804                     0.5
    58   1      10.812253204121857      9.6065357491926289                     0.5
    59   1      2.9133773991032776      6.0175168859635022                     0.5
    60   1      10.811968625220771     0.46961748513147011      5.2183470051500294
    61   1       2.063756805765824      5.5249363074453619      5.2277987586465064
    62   1      8.3354432294330678      5.4189324081302424      11.003609847697492
    63   1      8.7515248423980569      4.0872871464791718      5.1638211747439682
    64   1      8.7798737260277679      5.0450857425383715      6.5345627503138806
    65   1      2.9304462649449268      5.0345966088192204      6.5938203749019877
    66   1       5.848224500890213   -0.019365096135652834      6.5847458088733308
    67   1  -0.0052910499750547478   -0.035821949271017409      6.5798301988777519
    68   1      5.8518482069131288      6.6829580354632201      6.7200556530268951
    69   1      6.1599310250183272       7.096401305664414      10.777983611005592
    70   1   0.0051136474140440619      6.5879201367387648      6.9494488683072042
    71   1      8.7183216856985251      1.6015479768848164      7.0476062394411683
    72   1      10.814589631598912      2.8797277837324491      3.8043095294545042
    73   1      7.0704523347274151     0.79382340431472032      10.759352373270861
    74   1 -4.3599999999999992e-14      4.3327797862746138      3.8043095294545042
    75   1      4.9854984059152576      9.6065357491926289                     0.5
    76   1      3.7522973639175206       7.925845460602198      3.8043095294545042
    77   1      8.7401321973098778      5.0461176768697538       1.866758950346576
    78   1      3.6993974048767377      2.1480358056493429      8.1647237093058749
    79   1      4.9700620492849845      5.5601517597263301      12.004540828444695
    80   1       9.622798533513313      2.0831164301277876      8.3518494543341948
    81   1     0.99584937587104227      8.5748181586379122       10.60730490357677
    82   1     0.80940128722839899      7.1171121109092992      8.3259749226918114
    83   1      8.1398964162555743      7.8762199215050259      12.195537078834825
    84   1      6.6421565343406188      7.1349238474933676       8.141780132768945
    85   1    0.001076294049384413      9.1027438556605276      5.2039429566080688
    86   1      5.8267547982065553      4.3327797862746138      3.8043095294545042
    87   1      5.8420632297121635      9.1263799186828862      5.1999448831332113
    88   1      7.9012122324956335       7.925845460602198      3.8043095294545042
    89   1      10.661875245240438      5.6706035832555708      11.719486625699371
    90   1      4.9878348333923119      2.8797277837324491      3.8043095294545042
    91   1      3.1519945850994624      4.4159721099378189      12.131867107383201
    92   2      2.9090184517671025      5.0427201444418479      5.5639875239664081
    93   2      8.7480609976395218        5.05698680478387      5.5065282478873208
    94   2      5.8267547982065997                       0     0.84163042435634416
    95   2   -0.025394567199347309      6.6319509780959747      7.9747143420635336
    96   2      8.7478604568489349      1.6180205531131422      8.0776764305161244
    97   2      8.7401321973098778      5.0461176768697538     0.84163042435634416
    98   2      2.9133773991032785      5.0461176768697538     0.84163042435634416
    99   2      5.8436683331595987 -0.00071892454524782878      5.5555286682920837
   100   2       8.740132197309876      8.4101961281162527      3.4593945362622507
   101   2      5.8069223050859469      6.6883087862201549       7.752151261778546
   102   2      2.8701262259030034      1.6652575642177325      7.7878902356044017
   103   2      5.8267547982065553      3.3640784512465056      3.4593945362622507
   104   2 -4.3599999999999992e-14      3.3640784512465056      3.4593945362622507
   105   2   0.0019213815047629821   -0.021752247967845705      5.5498287655280309
   106   2  8.9999999999999983e-16                       0     0.84163042435634416
   107   2      2.9133773991032776      8.4101961281162527      3.4593945362622507
   108   3      10.244066880020526      4.0384690537456427        7.50173400293124
   109   3      2.9133773991032772      3.0917580036970467      3.3010724808649616
   110   3 -4.3599999999999992e-14      8.1378756805668004      3.3010724808649616
   111   3      5.8267547982065553      8.1378756805668004      3.3010724808649616
   112   3       4.132202971906807      2.3857284981765692      1.3166483637921624
   113   3      9.9589577701134058      2.3857284981765692      1.3166483637921624
   114   3      1.2188255728034858      7.4318461750463234      1.3166483637921624
   115   3      7.0455803710100851      7.4318461750463234      1.3166483637921624
   116   3      4.1674991193863455      9.1283142140504676      7.8021702670142972
   117   3      6.4037491060205358      7.9075219543153761      10.264974624120756
   118   3      4.6186088791482209      9.0783808656863041       11.85148204064612
   119   3      2.9358547209572605      7.0539456517019534      7.8662455465272014
   120   3      4.6227410212424385      4.2004718239481624      7.6145453001379035
   121   3      7.5613241567772507      9.1667441160302801      7.7087358937010197
   122   3      1.7192845497114946      9.1691068939573714      7.7610961983951343
   123   3      7.5215108522519873      7.6863385250432206      5.7787553636013564
   124   3      1.7296937106980779      7.6974128923016085      5.8573064013787741
   125   3      8.8488979345216183      7.5772514180303689      11.584728573878394
   126   3      6.7894184965403417      2.8229562604004648      10.714999196677214
   127   3      2.2336608928479578      4.9743857776148328      9.9049934922869749
   128   3      11.150331054583862      9.2108670773849362      12.161952218958154
   129   3       4.134229673107142     0.97717983658635332      3.3010724808649616
   130   3       8.740132197309876      3.0917580036970467      3.3010724808649616
   131   3      4.7803550563829482      1.4657047544695649      12.077725311513614
   132   3      2.3992416152155989      9.5453981544409938      10.540260647511754
   133   3      5.8267547982065553      5.3207783573863692      1.3166483637921624
   134   3      9.1836558396126335      5.1235301176539565      11.321987956864126
   135   3      6.0039850782388315        4.73429171881555      5.7390243243821493
   136   3      11.223881998676037      4.3427898222173331      9.9978527066369125
   137   3       8.771947354683121      7.0415363372170221       7.788534505660647
   138   3      1.6945518262997477      2.3857284981765683      1.3166483637921624
   139   3      9.9474438717310694      7.6476949325757753      5.7585995171070952
   140   3      9.9609844713137417     0.97717983658635332      3.3010724808649616
   141   3      7.0476070722104192      6.0232975134561082      3.3010724808649616
   142   3      10.042274982408664      9.1261741269988139      7.6377456506954422
   143   3      1.1220700898230422      4.0560162251020095       7.670593000254109
   144   3      7.0607735765053805      4.0627090963153076      7.8314919793861026
   145   3      2.9647952777994333      9.7880497530130413      5.7838386999574363
   146   3      8.7456879128784557      9.7928847670885535        5.72418768816918
   147   3      4.7020842499353952      2.6734745031432534      5.7579036581770415
   148   3      10.443219955244004      2.5953096604666483      5.6443744401817311
   149   3      4.6079292254030255      7.4318461750463234      1.3166483637921624
   150   3      1.6925251250994144     0.97717983658635321      3.3010724808649616
   151   3      10.523956245512275      1.7321029698082646      10.519166158806572
   152   3      8.4807619312980709     0.70522151577141645      11.968993409264634
   153   3      1.9861479396538166      5.8336845280524718      12.900618987507906
   154   3      7.0532474376273617       5.332126343279679      9.9937549242576065
   155   3     0.84921142620735313      1.1131544072278785      12.631457894762214
   156   3      3.1119241437214695      7.1378508550181605      10.753421417953181
   157   3      7.5213066245063471      2.3857284981765683      1.3166483637921624
   158   3      2.3923143907213551      1.9161047498862462      10.564361545684539
   159   3      10.434684023609625      7.4318461750463234      1.3166483637921624
   160   3      5.7594693356932734      2.0078923176164567      7.8258098459448533
   161   3   -0.080539234849328789      1.9329186945622845      7.6981537515080296
   162   3      1.2208522740038206      6.0232975134561082      3.3010724808649616
   163   3      7.1250936922080284         2.6069529452419       5.901758753852052
   164   3      1.2364140492414477      2.6130190838320591       5.797660753220728
   165   3      4.1444360488001202      7.6872938605228303      5.8221984030217531
   166   3      4.6059025242026905      6.0232975134561082      3.3010724808649616
   167   3      7.0313260926600734      8.6760512692160869      12.736622669181882
   168   3       1.056315234288647      3.5619327985988138      11.737033828121893
   169   3      9.2843748333554945      9.4096951891829441      10.096450480771846
   170   3      9.1855338555146293      2.9348877636849342      12.691374896540987
   171   3   -0.034784092179085867        4.73705414568356      5.6818232831156958
   172   3      4.4700129859540638       3.234892722476296      10.045047572371784
   173   3      11.411677627482707      6.2639494339837718      11.674859450319682
   174   3      4.1063929267981729      4.3488188524191465      12.339767653986129
   175   3      6.4508406135264718     0.19569676212719889      10.342549359388242
   176   3      5.5247510449509303      6.3460581641163927      11.884854749837357
   177   3     0.41236086592412141      8.1676583288444053      9.9824132802437813
   178   3 -4.3599999999999992e-14      5.3207783573863692      1.3166483637921624
   179   3       8.740132197309876      0.2746606805166148      1.3166483637921624
   180   3      2.9133773991032776      0.2746606805166148      1.3166483637921624
   181   3      10.432657322409289      6.0232975134561082      3.3010724808649616
   182   3       7.519279923306013     0.97717983658635321      3.3010724808649616
   183   4   -0.072294315599128633      3.3356095788977069      6.7044602501369299
   184   4      5.8778562681256066      3.3735132220117423      6.8138977312261177
   185   4      2.9133773991032776      1.6820392256232506      2.2987940834959804
   186   4 -4.3599999999999992e-14      6.7281569024930041      2.2987940834959804
   187   4      2.9354317986367171      8.4268155571675383      6.8258944870870542
   188   4      8.7659429340754489      8.4153454007224759      6.7710573383653267
   189   4      5.8267547982065553      6.7281569024930041      2.2987940834959804
   190   4       8.740132197309876      1.6820392256232506      2.2987940834959804
