(written by ASE)

190 atoms
4 atom types

0.0      11.653509596413199  xlo xhi
0.0        10.0922353537395  ylo yhi
0.0                      30  zlo zhi
                      0                       0                       0  xy xz yz

Atoms # atomic

     1   1     0.83974258823510073     0.45293065404481669      5.1626069388030125
     2   1      9.5716915694602633      5.5330181583125446      5.0873573221625774
     3   1      10.929058199025741      3.3200738413841493      10.219475856418454
     4   1      3.7309672156956299      5.5256702859557842      5.1495461055925293
     5   1      8.7474474739577737      3.0584501735379703       12.40781086420513
     6   1      6.7037040723069774     0.48882012172940548      5.1895154050005816
     7   1      3.8920143784425201      2.7322168320218752      10.520292062818953
     8   1      2.0968957610017891      2.2958185548213774      8.1565791294487688
     9   1      5.0853138880050217      8.5783004445521751      11.161964707109554
    10   1      3.7546337913945762      4.5604180723228787                     0.5
    11   1      4.7960332534786474     0.61934371906041208      11.994296779834624
    12   1      6.6680111904978974      9.6065357491926271                     0.5
    13   1       3.025704076249482      7.3444198926885251      9.4338353857448638
    14   1      3.2322751226632533      9.2884932632360275      11.204360853026298
    15   1     0.88281726846511244      3.9925613986564659       11.15563220007007
    16   1      5.7510977252191982      5.7644393029263572      8.1803482931964968
    17   1   -0.054256227072437387      5.6289935619490921      8.3876031854046076
    18   1      1.0776553037677112      5.8201431414427116      12.697813849611485
    19   1      8.6711396731303871     0.60976537406617592      8.4555776872249471
    20   1      8.9076696781441811      0.2110404426914943      11.223353417731593
    21   1      2.7841376273911189     0.74574888715547583      8.1338277088177318
    22   1      11.214042269685844      1.5628006450122662      11.404963359791729
    23   1      5.9105322371900364      2.9554159502408615      10.609456329638443
    24   1      6.6656747630207986      2.8797277837324504      3.8043095294545042
    25   1     0.83891996481419984      2.8797277837324504      3.8043095294545042
    26   1      9.5790521621241194       7.925845460602198      3.8043095294545042
    27   1 -4.3599999999999992e-14      3.3640784512465056      2.4321633756321481
    28   1      2.9296530069613107      1.7521148432587978       6.802937407473598
    29   1      2.9020264343911704       4.068017291377334      5.1377873069750271
    30   1       8.740132197309876      6.0175168859635022                     0.5
    31   1 -4.3599999999999992e-14     0.97139920909375399                     0.5
    32   1      5.8267547982065553     0.97139920909375399                     0.5
    33   1      5.0286730938724933     0.49903412124826357      5.1840026031724245
    34   1      6.9805043436036271      4.3421860401728196      10.266615345509903
    35   1      1.0356144398760021      2.3569146785909187      12.359526009639984
    36   1       8.740132197309876      9.3788974631443622      3.8043095294545042
    37   1     0.84125639229129867      9.6065357491926271                     0.5
    38   1      7.8856586026262816      5.5172592110775227      5.1623487614855508
    39   1      5.8267547982065553      3.3640784512465056      2.4321633756321481
    40   1       9.146289762698828      8.5594449925750329      10.604333942035897
    41   1       8.740132197309876      8.4101961281162527      2.4321633756321481
    42   1      2.9133773991032776      8.4101961281162527      2.4321633756321481
    43   1      9.5813885896011737      4.5604180723228787                     0.5
    44   1      2.9133773991032776      9.3788974631443622      3.8043095294545042
    45   1      2.5940065406443318      5.6812673699741731      10.261258611015517
    46   1      7.9559982488795224       2.157130902423205      8.4299478919297623
    47   1      11.237769579647145      8.6601554578089139      11.595064075700181
    48   1      5.1174869806542311      7.3281756145990409      8.1378764545059745
    49   1      7.0706871589811637      9.5720911938666617       12.38997018595389
    50   1      10.707961804746731      7.0639740179115709      8.2254832736314754
    51   1      2.5010581868031365      1.1285168680188766      10.846351752137108
    52   1      2.0744574342890343       7.925845460602198      3.8043095294545042
    53   1      2.9133773991032785      5.0461176768697538       1.866758950346576
    54   1      5.8267547982065997                       0       1.866758950346576
    55   1  8.9999999999999983e-16                       0       1.866758950346576
    56   1      7.8988758050185357      4.5604180723228804                     0.5
    57   1      2.0721210068119365      4.5604180723228804                     0.5
    58   1      10.812253204121857      9.6065357491926289                     0.5
    59   1      2.9133773991032776      6.0175168859635022                     0.5
    60   1      10.811379055907874     0.45293100563437222       5.149892626049617
    61   1      2.0495007849086249      5.5165828235189824      5.2202666081892524
    62   1       8.435880236850485      5.3442431183338828      10.760952190709585
    63   1      8.7541116914164991      4.0747366094484576      5.1051963631253443
    64   1      8.8014983756764256      5.0166949804886336      6.4833580169271174
    65   1      2.9611854410653748      4.9782966674785554      6.5404163183219461
    66   1      5.8623778200762722    -0.02905072393677182      6.5438013327814657
    67   1   -0.022677157587140607   -0.057237931442439029      6.5195358922269673
    68   1      5.9494012040951985      6.7191404162103616        6.80708786297527
    69   1      5.8062162740592509      6.8925097790727801       11.08407839855955
    70   1   -0.043200934339487483      6.4805363545326395        6.94876067265246
    71   1      8.6459751073819167        1.52514269598838      7.0535008178814378
    72   1      10.814589631598912      2.8797277837324491      3.8043095294545042
    73   1      7.1229337719054469     0.73904174931143762      10.956691569999887
    74   1 -4.3599999999999992e-14      4.3327797862746138      3.8043095294545042
    75   1      4.9854984059152576      9.6065357491926289                     0.5
    76   1      3.7522973639175206       7.925845460602198      3.8043095294545042
    77   1      8.7401321973098778      5.0461176768697538       1.866758950346576
    78   1      3.7650933797081096      2.1397765659569434      8.2179459467944653
    79   1      4.9187786212138276      5.4606046249525804      12.180921843343301
    80   1      9.6378867138592863      1.9941940344715172      8.3064251099426976
    81   1      1.0953570676453404      8.8975365063491143      10.276389191694198
    82   1      0.7343486686929841      7.1140604297074495      8.2927441146405005
    83   1      8.1326315774274303       7.890731533618454      12.173064857107248
    84   1      6.7500711200363881      7.1101918909352886      8.2405505977837237
    85   1  -0.0011495183138900673      9.0910873004971435      5.1313142688855118
    86   1      5.8267547982065553      4.3327797862746138      3.8043095294545042
    87   1      5.8637551900605116      9.1278934049669527      5.1405498096235762
    88   1      7.9012122324956335       7.925845460602198      3.8043095294545042
    89   1       10.48388792882854      5.7443840427916051      11.759644206283442
    90   1      4.9878348333923119      2.8797277837324491      3.8043095294545042
    91   1      2.9938282154970572      4.9861697046805284      12.649714146086653
    92   2      2.9067045310147535      5.0275183740847735      5.5136040590254431
    93   2      8.7479458985897036      5.0409515875667328       5.457839170862842
    94   2      5.8267547982065997                       0     0.84163042435634416
    95   2   -0.075178287814109623      6.5730312278333587      7.9732724954328624
    96   2      8.7269337977997914      1.5705644229957894      8.0807826290295814
    97   2      8.7401321973098778      5.0461176768697538     0.84163042435634416
    98   2      2.9133773991032785      5.0461176768697538     0.84163042435634416
    99   2      5.8613260312390256  -0.0061118546809898538      5.5146134594448686
   100   2       8.740132197309876      8.4101961281162527      3.4593945362622507
   101   2      5.8886500096256578      6.7240115445352551      7.8366052358920495
   102   2      2.8973267954128672      1.7287373561462946      7.8345805850455301
   103   2      5.8267547982065553      3.3640784512465056      3.4593945362622507
   104   2 -4.3599999999999992e-14      3.3640784512465056      3.4593945362622507
   105   2   -0.002453814081177529   -0.038037510476136266      5.4905436723351757
   106   2  8.9999999999999983e-16                       0     0.84163042435634416
   107   2      2.9133773991032776      8.4101961281162527      3.4593945362622507
   108   3      10.316462488077942      3.9818498328285896      7.6671591276509448
   109   3      2.9133773991032772      3.0917580036970467      3.3010724808649616
   110   3 -4.3599999999999992e-14      8.1378756805668004      3.3010724808649616
   111   3      5.8267547982065553      8.1378756805668004      3.3010724808649616
   112   3       4.132202971906807      2.3857284981765692      1.3166483637921624
   113   3      9.9589577701134058      2.3857284981765692      1.3166483637921624
   114   3      1.2188255728034858      7.4318461750463234      1.3166483637921624
   115   3      7.0455803710100851      7.4318461750463234      1.3166483637921624
   116   3      4.1628111194962543      9.1594744366487202      7.7738378939280057
   117   3      5.7959306200669376      7.6611681882932796      10.415285220113041
   118   3      4.4922625044348523      9.1007576873277181      11.793476773384951
   119   3      2.8874445334454415      7.1149869958213001       7.950696256219131
   120   3      4.6386971219111697      4.1377667311356054      7.6247047951068181
   121   3      7.5853344132828404      9.1303137748234171      7.7183227343324274
   122   3      1.7353830846105409      9.2219242250911133      7.7963170970223015
   123   3       7.538682095780854      7.7072238257375698      5.7579330295495241
   124   3      1.6915274506209768      7.7103735486380689      5.9085840156724441
   125   3      8.7318138837425998      7.5273763588969427      11.481466412073193
   126   3      6.8773296508812427      3.0813940110542566      10.826489949833363
   127   3      2.0906247804338811      4.9199446245364218      9.9670443300963285
   128   3      10.868353051483192      9.1837939731025902      12.311456200778103
   129   3       4.134229673107142     0.97717983658635332      3.3010724808649616
   130   3       8.740132197309876      3.0917580036970467      3.3010724808649616
   131   3      4.6474537558793143      1.5353819330729535      12.235999543965734
   132   3      2.3755612345223258      9.7153339389331244      10.888535684671417
   133   3      5.8267547982065553      5.3207783573863692      1.3166483637921624
   134   3      9.2201058112224796      5.0490427200211618      11.285457245108084
   135   3      5.9330134281273716      4.7217161866167663      5.7106704853662906
   136   3      11.389265441110989      4.1570598059137662       10.04257066822464
   137   3      8.7790899262062947      7.0242482258129542      7.7534032693998656
   138   3      1.6945518262997477      2.3857284981765683      1.3166483637921624
   139   3      9.9629582905646821      7.6585015971976036      5.7256979739725855
   140   3      9.9609844713137417     0.97717983658635332      3.3010724808649616
   141   3      7.0476070722104192      6.0232975134561082      3.3010724808649616
   142   3      10.050156846460718      9.0986373991538834      7.6388387192969338
   143   3       1.181460736164536      3.9911668536793483      7.6536068848162184
   144   3      7.0819918106294422      3.9578616635688739      7.7182810799343304
   145   3      2.9354200345380641      9.8202021902959107        5.76230523799771
   146   3      8.7561373157041942      9.8196361824024372      5.7322496915619885
   147   3      4.6078077431809463      2.6468794672706446      5.7226451390231858
   148   3      10.341671785911531      2.5859300608457509      5.7310482002254863
   149   3      4.6079292254030255      7.4318461750463234      1.3166483637921624
   150   3      1.6925251250994144     0.97717983658635321      3.3010724808649616
   151   3      10.544206267436845       1.880940165752137      10.750435345521007
   152   3      8.3836931774780492     0.77038745415572774      11.880409476393933
   153   3      1.9859048252814315      5.9216813462328126      13.062716970471353
   154   3       7.137323197687329      5.3039221401925154      10.027613618975973
   155   3     0.79210974275370594      1.4006512807046867      12.297671015033494
   156   3      3.1512698023525689      7.1822476174780583      10.398218403264945
   157   3      7.5213066245063471      2.3857284981765683      1.3166483637921624
   158   3      2.6148190172370294      2.0417927932513211      10.518394574128182
   159   3      10.434684023609625      7.4318461750463234      1.3166483637921624
   160   3      5.7460750367061149      1.9371761237434078      7.7247761232335108
   161   3   -0.049866863436386348       1.877803170926468      7.7177949018718248
   162   3      1.2208522740038206      6.0232975134561082      3.3010724808649616
   163   3      7.0468108507585567      2.5541581714118706      5.7537462798755898
   164   3      1.1627611674258156      2.5746542064423648      5.7370968217532914
   165   3      4.0999284862443632      7.6751859186210023      5.8720725232573914
   166   3      4.6059025242026905      6.0232975134561082      3.3010724808649616
   167   3      7.1124767096727624      8.7414264961774482      12.877917155736704
   168   3      1.1055902330635161      3.8086053410227594      12.088316203120687
   169   3      9.2843214656234174      9.4432894513021406      10.161951950623198
   170   3      9.1780630038466295      3.0884731984084262      13.253569982369619
   171   3    -0.10878878464073605      4.7342204383763482       5.752419096039648
   172   3      4.6594252367009688      3.1377688922941629      10.047817111673812
   173   3      11.287486637636931      6.2016295647474422      12.120501188812185
   174   3      3.8320644228350225      4.5454730242994916      12.279069531984263
   175   3      6.3963847794731343     0.26963988946147122      10.513762727563632
   176   3      5.7168851799734046      6.0675773914127928       12.09573441630498
   177   3     0.37584304355176734      8.2683456086107441      10.170757175605155
   178   3 -4.3599999999999992e-14      5.3207783573863692      1.3166483637921624
   179   3       8.740132197309876      0.2746606805166148      1.3166483637921624
   180   3      2.9133773991032776      0.2746606805166148      1.3166483637921624
   181   3      10.432657322409289      6.0232975134561082      3.3010724808649616
   182   3       7.519279923306013     0.97717983658635321      3.3010724808649616
   183   4   -0.089143588375910687      3.2986827978833548      6.7455452653942487
   184   4      5.8407379602129526      3.3201750108544132      6.7378231395399766
   185   4      2.9133773991032776      1.6820392256232506      2.2987940834959804
   186   4 -4.3599999999999992e-14      6.7281569024930041      2.2987940834959804
   187   4      2.9152735160157652      8.4776773342235359      6.8159803410003672
   188   4      8.7835544061209543      8.4181324795949237      6.7439063516305007
   189   4      5.8267547982065553      6.7281569024930041      2.2987940834959804
   190   4       8.740132197309876      1.6820392256232506      2.2987940834959804
