(written by ASE)

190 atoms
4 atom types

0.0      11.653509596413199  xlo xhi
0.0        10.0922353537395  ylo yhi
0.0                      30  zlo zhi
                      0                       0                       0  xy xz yz

Atoms # atomic

     1   1     0.84087265586142301     0.45043112806834357      5.1659643498834322
     2   1      9.5736305942430544      5.5336051642819797       5.090745924455546
     3   1      10.903182361859164      3.3374576235324938      10.202925766988981
     4   1      3.7318330281778302      5.5248393327369349      5.1539333337815174
     5   1      8.7283577161295316       3.057149576432634      12.382957175295017
     6   1      6.7035821982256723     0.48881782677095276      5.1927878366177875
     7   1      3.8741385761998268      2.7538663230031326      10.508153911838605
     8   1      2.0898352018768889      2.2863418206007999      8.1564269651744077
     9   1      5.1136486276733386      8.5900440351543352      11.145445324147317
    10   1      3.7546337913945762      4.5604180723228787                     0.5
    11   1      4.7959861388178853     0.61558768902103422      11.991840246749176
    12   1      6.6680111904978974      9.6065357491926271                     0.5
    13   1      3.0180625433060793      7.3863528265127911      9.4718231496136909
    14   1      3.2360161513708503      9.2551019285051925      11.218050471688709
    15   1     0.88342646086110221       3.978716571926701      11.142802140560248
    16   1      5.7540562027456987      5.7633526027838169      8.1803762119647825
    17   1    -0.05332394595164669       5.631803661592035      8.3779870525727844
    18   1      1.0849921829461797      5.8241049082789011      12.681896634793885
    19   1      8.6774854332179547     0.61058960698564035      8.4528174091646875
    20   1      8.8921699461412125     0.20764546506319376      11.221047358651672
    21   1      2.7902991247015838     0.73653074327005164      8.1321120934567492
    22   1      11.187161584756291       1.558027999053649      11.411262887144906
    23   1      5.8927847458451064      2.9397611492580058      10.612260182091775
    24   1      6.6656747630207986      2.8797277837324504      3.8043095294545042
    25   1     0.83891996481419984      2.8797277837324504      3.8043095294545042
    26   1      9.5790521621241194       7.925845460602198      3.8043095294545042
    27   1 -4.3599999999999992e-14      3.3640784512465056      2.4321633756321481
    28   1      2.9331439898941056      1.7444970372622008      6.8094496215354452
    29   1      2.9044232573612674      4.0688215843141231      5.1447972158764657
    30   1       8.740132197309876      6.0175168859635022                     0.5
    31   1 -4.3599999999999992e-14     0.97139920909375399                     0.5
    32   1      5.8267547982065553     0.97139920909375399                     0.5
    33   1      5.0287285200154352     0.49932721464745428      5.1884025505037155
    34   1      6.9599599509841683      4.3356613406593674      10.247959089514692
    35   1      1.0532567756431914      2.3447906974648123      12.346096266829761
    36   1       8.740132197309876      9.3788974631443622      3.8043095294545042
    37   1     0.84125639229129867      9.6065357491926271                     0.5
    38   1      7.8855117946124871      5.5211987509056124      5.1640387168316586
    39   1      5.8267547982065553      3.3640784512465056      2.4321633756321481
    40   1      9.1338110729852495      8.5475877684192447      10.591084156711906
    41   1       8.740132197309876      8.4101961281162527      2.4321633756321481
    42   1      2.9133773991032776      8.4101961281162527      2.4321633756321481
    43   1      9.5813885896011737      4.5604180723228787                     0.5
    44   1      2.9133773991032776      9.3788974631443622      3.8043095294545042
    45   1      2.5881681274523505      5.6798932387074057       10.25529421443861
    46   1      7.9525439263467481      2.1542282268038315      8.4286576159740214
    47   1      11.209254441650987      8.6502349927219164      11.562838577935484
    48   1       5.105346151076783      7.3209045716922283      8.1376447571178545
    49   1      7.0566579205367086      9.5459465712540261      12.363000134153403
    50   1       10.71258805930783      7.0723571824573348      8.2273450215147559
    51   1      2.5331593971184723      1.1305849289585765      10.833987550312649
    52   1      2.0744574342890343       7.925845460602198      3.8043095294545042
    53   1      2.9133773991032785      5.0461176768697538       1.866758950346576
    54   1      5.8267547982065997                       0       1.866758950346576
    55   1  8.9999999999999983e-16                       0       1.866758950346576
    56   1      7.8988758050185357      4.5604180723228804                     0.5
    57   1      2.0721210068119365      4.5604180723228804                     0.5
    58   1      10.812253204121857      9.6065357491926289                     0.5
    59   1      2.9133773991032776      6.0175168859635022                     0.5
    60   1      10.810487928593423     0.45289510297511504      5.1553522799370928
    61   1      2.0498965375310654      5.5174162293486448      5.2198809260737589
    62   1      8.4329832238038644      5.3499137440239641      10.765413672569897
    63   1      8.7553126385042237      4.0772524034590445      5.1084103770152982
    64   1      8.7997474612051736      5.0206349784685971      6.4854674924690183
    65   1      2.9600384420123693      4.9850914752825899      6.5445458170948179
    66   1      5.8621476552034713   -0.028258107124038041      6.5477143393789383
    67   1   -0.020753376598309531   -0.057420860154940204       6.524358016797918
    68   1      5.9444463074764835      6.7197806635040012      6.8038527591627052
    69   1      5.8281643770666518      6.9025667739825964      11.047126376717616
    70   1   -0.040222772721460978      6.4906205972433177      6.9469741060373567
    71   1       8.650516181421251      1.5275602163616324      7.0536186252221933
    72   1      10.814589631598912      2.8797277837324491      3.8043095294545042
    73   1        7.13642587938517     0.74984182931843735      10.953620167933583
    74   1 -4.3599999999999992e-14      4.3327797862746138      3.8043095294545042
    75   1      4.9854984059152576      9.6065357491926289                     0.5
    76   1      3.7522973639175206       7.925845460602198      3.8043095294545042
    77   1      8.7401321973098778      5.0461176768697538       1.866758950346576
    78   1      3.7585545021148921        2.14317317263819      8.2173343078480503
    79   1      4.9255681293268783      5.4903577834223354      12.169448495354199
    80   1      9.6358625158242521      2.0005811665567466       8.306365714519373
    81   1      1.0757355228428247      8.8912501446354426      10.287173366242294
    82   1     0.74147941477150758      7.1131526239719101      8.2910895741669783
    83   1      8.1532841683285238      7.9051897350603557      12.187561406001752
    84   1      6.7382012026801252      7.1170797579402638      8.2401154418997695
    85   1 -1.3494551990415793e-05      9.0915943235088985      5.1374925759370091
    86   1      5.8267547982065553      4.3327797862746138      3.8043095294545042
    87   1      5.8632057615003816       9.127747627691674      5.1453465189644811
    88   1      7.9012122324956335       7.925845460602198      3.8043095294545042
    89   1      10.483580556653777       5.762012046706654      11.736610422300622
    90   1      4.9878348333923119      2.8797277837324491      3.8043095294545042
    91   1      3.0073229147780589      4.9369680881170508      12.636686207205088
    92   2      2.9062041231695472      5.0292855024242167      5.5175171238190215
    93   2       8.747706226147363      5.0440181112987039      5.4597645567211295
    94   2      5.8267547982065997                       0     0.84163042435634416
    95   2     -0.0726221833050536       6.579071785430644       7.971405200488614
    96   2      8.7276441342009345      1.5724208192406961      8.0807443262786034
    97   2      8.7401321973098778      5.0461176768697538     0.84163042435634416
    98   2      2.9133773991032785      5.0461176768697538     0.84163042435634416
    99   2       5.861365742184609  -0.0058589179610325972      5.5185111911430491
   100   2       8.740132197309876      8.4101961281162527      3.4593945362622507
   101   2       5.881701737262051      6.7235691394896051      7.8341005667909078
   102   2      2.8945894807389556      1.7223025021155167      7.8391994821392048
   103   2      5.8267547982065553      3.3640784512465056      3.4593945362622507
   104   2 -4.3599999999999992e-14      3.3640784512465056      3.4593945362622507
   105   2  -0.0024851629131313968   -0.037298466129053895      5.4954132616104907
   106   2  8.9999999999999983e-16                       0     0.84163042435634416
   107   2      2.9133773991032776      8.4101961281162527      3.4593945362622507
   108   3      10.312236478318393      3.9849012371312127      7.6613113194984104
   109   3      2.9133773991032772      3.0917580036970467      3.3010724808649616
   110   3 -4.3599999999999992e-14      8.1378756805668004      3.3010724808649616
   111   3      5.8267547982065553      8.1378756805668004      3.3010724808649616
   112   3       4.132202971906807      2.3857284981765692      1.3166483637921624
   113   3      9.9589577701134058      2.3857284981765692      1.3166483637921624
   114   3      1.2188255728034858      7.4318461750463234      1.3166483637921624
   115   3      7.0455803710100851      7.4318461750463234      1.3166483637921624
   116   3      4.1644365369556997      9.1597070742457536      7.7737501738413783
   117   3      5.8004174922793084      7.6921896254421318      10.404755279778572
   118   3      4.4901486749838329      9.1035522393986561      11.803247770322249
   119   3       2.890113997392914      7.1177496823773065      7.9422392047689936
   120   3      4.6316972126318143      4.1419099448183339      7.6225027033385153
   121   3      7.5846916830588302       9.135307363539285      7.7135791737142778
   122   3      1.7320312196271515      9.2184701937330864      7.7914165131166122
   123   3      7.5377934177021215      7.7072766555532981      5.7513509325734038
   124   3      1.6943875618088082      7.7076393293155387       5.905088677042416
   125   3      8.7429593448360716      7.5292274729366424      11.491967151507499
   126   3      6.8654857733285031      3.0633957027681147      10.842879070193943
   127   3      2.0875772012028051      4.9142567319897852      9.9756335798905074
   128   3       10.88300235894341      9.1796869076947019      12.292853194078695
   129   3       4.134229673107142     0.97717983658635332      3.3010724808649616
   130   3       8.740132197309876      3.0917580036970467      3.3010724808649616
   131   3      4.6536946739698122      1.5372315161548782      12.220346845289214
   132   3      2.3770528443928018       9.696804372741358      10.882557512471891
   133   3      5.8267547982065553      5.3207783573863692      1.3166483637921624
   134   3      9.2029842957986201      5.0449837383135696      11.296375955768417
   135   3      5.9374859441232957      4.7210493819901966      5.7081328214515263
   136   3       11.36964223316189      4.1715849372724474       10.03604667002177
   137   3      8.7795151936039399      7.0287881778170256      7.7497985269010616
   138   3      1.6945518262997477      2.3857284981765683      1.3166483637921624
   139   3      9.9626916098803235      7.6595731477852134      5.7250610275910399
   140   3      9.9609844713137417     0.97717983658635332      3.3010724808649616
   141   3      7.0476070722104192      6.0232975134561082      3.3010724808649616
   142   3      10.049327920378985      9.1008268082606545       7.635900821117688
   143   3      1.1777961112295916      3.9810808661641057      7.6425956296953137
   144   3      7.0816581753423868      3.9596794846336523      7.7171418036150037
   145   3      2.9364882500093752      9.8161250760506373        5.76059162682572
   146   3       8.756752359421716       9.818170171024768      5.7291622214296991
   147   3      4.6176052948766948      2.6452845018324052      5.7224080465331575
   148   3      10.347375935834265      2.5918153813388534      5.7422141814329084
   149   3      4.6079292254030255      7.4318461750463234      1.3166483637921624
   150   3      1.6925251250994144     0.97717983658635321      3.3010724808649616
   151   3      10.539136474840813      1.8811191401841303      10.745066334282544
   152   3      8.3837360860158068     0.77435383454761908       11.87226315990182
   153   3      1.9927511529569537      5.9043042732149535      13.040738000643298
   154   3      7.1283147522577091      5.3002285320820741      10.028095025527758
   155   3     0.82699417543898346       1.389228168908861      12.312785002806166
   156   3      3.1662817508312457      7.1863672004258969       10.41634892698389
   157   3      7.5213066245063471      2.3857284981765683      1.3166483637921624
   158   3      2.6223910550762768      2.0449185658013129      10.515727003917766
   159   3      10.434684023609625      7.4318461750463234      1.3166483637921624
   160   3      5.7460923771134551      1.9373437462730314      7.7304320565482723
   161   3   -0.037272158074106054      1.8901340370974562      7.7063391772580747
   162   3      1.2208522740038206      6.0232975134561082      3.3010724808649616
   163   3      7.0508671984636289      2.5564600821197963      5.7597923555814843
   164   3      1.1561704809314606      2.5840574482893492      5.7446379229345483
   165   3      4.1061053351930816      7.6737065841267782      5.8616503696915192
   166   3      4.6059025242026905      6.0232975134561082      3.3010724808649616
   167   3      7.0904437497697952      8.7216479790383126      12.863327929737878
   168   3       1.098098749102655      3.8126086923289919      12.080067399947993
   169   3      9.3097373249571262      9.4352513863366489      10.166804959782093
   170   3      9.1907246228992445       3.100796801429619      13.208464223891136
   171   3    -0.10860581186543161      4.7307624955834084      5.7624268803740462
   172   3      4.6567983217818982      3.1414812643541548      10.039941049223374
   173   3      11.282953732345771      6.1932228505135072       12.10434096556145
   174   3      3.8336153355659079      4.5180595158596857      12.255464735207045
   175   3      6.4164213062687354     0.26646099491717917      10.513737189495908
   176   3      5.7297374268763095      6.0799529408033957      12.090658166345593
   177   3     0.36977138931674369      8.2531822889842559      10.162268603157946
   178   3 -4.3599999999999992e-14      5.3207783573863692      1.3166483637921624
   179   3       8.740132197309876      0.2746606805166148      1.3166483637921624
   180   3      2.9133773991032776      0.2746606805166148      1.3166483637921624
   181   3      10.432657322409289      6.0232975134561082      3.3010724808649616
   182   3       7.519279923306013     0.97717983658635321      3.3010724808649616
   183   4   -0.093088877023221231      3.3021921103700462      6.7428628193223341
   184   4      5.8405366765803564      3.3210973316354955      6.7384137881769997
   185   4      2.9133773991032776      1.6820392256232506      2.2987940834959804
   186   4 -4.3599999999999992e-14      6.7281569024930041      2.2987940834959804
   187   4      2.9173819770709772      8.4725474789648807      6.8116076027228587
   188   4      8.7833382823900461      8.4183451382881014       6.739708701085684
   189   4      5.8267547982065553      6.7281569024930041      2.2987940834959804
   190   4       8.740132197309876      1.6820392256232506      2.2987940834959804
