(written by ASE)

190 atoms
4 atom types

0.0      11.653509596413199  xlo xhi
0.0        10.0922353537395  ylo yhi
0.0                      30  zlo zhi
                      0                       0                       0  xy xz yz

Atoms # atomic

     1   1     0.83816452862365531     0.46223812988559043      5.1892311276904985
     2   1      9.5737543810300849      5.5536299860531999      5.1160068379050117
     3   1      10.762692145632423      3.4560761911971314      10.141777230971901
     4   1      3.7392837067076785       5.533637974474674        5.18138685578025
     5   1      8.6059736252073922      3.0809048833144685      12.230370114179967
     6   1      6.6986744254781447     0.48682724768943036      5.2105746273819182
     7   1      3.7767920878025945      2.8691204886847226       10.40975979732969
     8   1      2.0301677891806951      2.1936439446234033      8.1188033024870059
     9   1      5.2129770703836034       8.708564587706519      11.188737344495609
    10   1      3.7546337913945762      4.5604180723228787                     0.5
    11   1      4.8101749586755833     0.52046341210512148      12.048362126071702
    12   1      6.6680111904978974      9.6065357491926271                     0.5
    13   1      2.9989233760947793      7.5924153583475995      9.7180342611050001
    14   1      3.1176167984276884      9.1785420567146154      11.272002993111968
    15   1     0.86119309938415844      3.9926658258506431      11.053737116366486
    16   1      5.7458929312808031      5.7427296428455374      8.1350782783009432
    17   1   -0.054170849331666486      5.6479648144420107      8.3542156164143044
    18   1      1.1037239844071056      5.8866798414313699      12.615672584463534
    19   1      8.7117807580688318     0.62586694687386479      8.4439539235602474
    20   1      8.9735686338057086     0.23596459649906074      11.308314263944608
    21   1      2.8063179001232199     0.72195698361907334      8.1331259254188826
    22   1      11.005209344796855       1.525887077928354      11.414245343649213
    23   1      5.8294113142599517      2.7949835983407181      10.731701551353444
    24   1      6.6656747630207986      2.8797277837324504      3.8043095294545042
    25   1     0.83891996481419984      2.8797277837324504      3.8043095294545042
    26   1      9.5790521621241194       7.925845460602198      3.8043095294545042
    27   1 -4.3599999999999992e-14      3.3640784512465056      2.4321633756321481
    28   1      2.9376387232369114      1.7149059919232059      6.7683887258533257
    29   1      2.9048881647259193        4.06864917282389      5.1896494078042874
    30   1       8.740132197309876      6.0175168859635022                     0.5
    31   1 -4.3599999999999992e-14     0.97139920909375399                     0.5
    32   1      5.8267547982065553     0.97139920909375399                     0.5
    33   1      5.0198182776877633     0.49660661825012298      5.2060436403915906
    34   1      6.9019007038943805      4.3578663868159575      10.119764433109449
    35   1      1.1748646012464439      2.1781096948706526      12.238223918024783
    36   1       8.740132197309876      9.3788974631443622      3.8043095294545042
    37   1     0.84125639229129867      9.6065357491926271                     0.5
    38   1      7.9009285403727629      5.5293399534028858       5.167964798155646
    39   1      5.8267547982065553      3.3640784512465056      2.4321633756321481
    40   1      9.0487024713768083      8.5438680532278752       10.53281678194945
    41   1       8.740132197309876      8.4101961281162527      2.4321633756321481
    42   1      2.9133773991032776      8.4101961281162527      2.4321633756321481
    43   1      9.5813885896011737      4.5604180723228787                     0.5
    44   1      2.9133773991032776      9.3788974631443622      3.8043095294545042
    45   1      2.5129152902100627      5.7565994798198563      10.245538058436507
    46   1      7.9356157411726747      2.1407663047134564       8.414065386023827
    47   1      11.020819612205038      8.6667649301242182      11.446338119871855
    48   1      5.0217052643505866      7.2626640291810451      8.0883584062701566
    49   1      6.9943969792756828      9.3522177509566227       12.19797668959219
    50   1      10.759780668695138      7.1097976127049289      8.2417476947886659
    51   1      2.7203678055243459      1.1523786861256937       10.83753439478946
    52   1      2.0744574342890343       7.925845460602198      3.8043095294545042
    53   1      2.9133773991032785      5.0461176768697538       1.866758950346576
    54   1      5.8267547982065997                       0       1.866758950346576
    55   1  8.9999999999999983e-16                       0       1.866758950346576
    56   1      7.8988758050185357      4.5604180723228804                     0.5
    57   1      2.0721210068119365      4.5604180723228804                     0.5
    58   1      10.812253204121857      9.6065357491926289                     0.5
    59   1      2.9133773991032776      6.0175168859635022                     0.5
    60   1      10.820392186798633     0.45700751757948271      5.1902417081513361
    61   1      2.0603876715479505      5.5189478349162533      5.2239648039711453
    62   1      8.3613777734364003      5.3970474651150866      10.876688848691828
    63   1       8.739769459023206       4.086342688548255      5.1304126568948734
    64   1      8.7916206968455963       5.037057803166892      6.5110194668324626
    65   1       2.944519489923632       5.014822199682361      6.5700994410920162
    66   1      5.8602133755652357   -0.025582254868044729      6.5698214929817018
    67   1   -0.013298896772639306   -0.051664829307615158      6.5556976768266839
    68   1      5.9006659196181817      6.7113837962849798       6.785406096940279
    69   1      5.9863745579486238      7.0568936928819417      10.848577666123173
    70   1   -0.020314418607738544      6.5524941914604629      6.9313572540575477
    71   1       8.678629283030725      1.5566595539422132      7.0463199812488782
    72   1      10.814589631598912      2.8797277837324491      3.8043095294545042
    73   1      7.1517055663269504     0.79590938916291532      10.831728665662848
    74   1 -4.3599999999999992e-14      4.3327797862746138      3.8043095294545042
    75   1      4.9854984059152576      9.6065357491926289                     0.5
    76   1      3.7522973639175206       7.925845460602198      3.8043095294545042
    77   1      8.7401321973098778      5.0461176768697538       1.866758950346576
    78   1      3.7405690090003114      2.1304917773533973      8.2046762158968516
    79   1      4.9365208299095515      5.5599724768232432      12.140682063331361
    80   1      9.6319157024191338      2.0405506409983127      8.3293918287375011
    81   1      1.0058454408943307      8.7616113699206899      10.418625644288678
    82   1     0.77161464814290548      7.1116556502525539      8.3013148427743264
    83   1      8.1940177572705473      8.0152009927676939      12.250008276781562
    84   1      6.7045662627144829      7.1411919647174953       8.185985754878951
    85   1  -0.0075680158317495061       9.087294050662404      5.1752573077094643
    86   1      5.8267547982065553      4.3327797862746138      3.8043095294545042
    87   1      5.8535800565524756      9.1281360527378386      5.1769703976969934
    88   1      7.9012122324956335       7.925845460602198      3.8043095294545042
    89   1       10.57582489542529      5.7588173655168156      11.740637323694015
    90   1      4.9878348333923119      2.8797277837324491      3.8043095294545042
    91   1      3.0201342046692918      4.6117604526048073        12.4611765462652
    92   2      2.9121641579384536      5.0367983115005686       5.540993620588166
    93   2      8.7537510647031365       5.052529905853322      5.4833147952269208
    94   2      5.8267547982065997                       0     0.84163042435634416
    95   2    -0.04718645221971416       6.600058825700172      7.9586564649637603
    96   2      8.7391385843794662      1.5912057365846237      8.0767742648526841
    97   2      8.7401321973098778      5.0461176768697538     0.84163042435634416
    98   2      2.9133773991032785      5.0461176768697538     0.84163042435634416
    99   2      5.8550816642352457  -0.0021628289095073465      5.5406465900032682
   100   2       8.740132197309876      8.4101961281162527      3.4593945362622507
   101   2      5.8451903620877488      6.7146540360477145       7.811850272653512
   102   2      2.8840111852370707      1.6994464335600155      7.8061607261913037
   103   2      5.8267547982065553      3.3640784512465056      3.4593945362622507
   104   2 -4.3599999999999992e-14      3.3640784512465056      3.4593945362622507
   105   2   0.0047268601370191298   -0.037838945375822684      5.5262254657894836
   106   2  8.9999999999999983e-16                       0     0.84163042435634416
   107   2      2.9133773991032776      8.4101961281162527      3.4593945362622507
   108   3      10.322740873129383       3.980601292451329      7.6257306431413108
   109   3      2.9133773991032772      3.0917580036970467      3.3010724808649616
   110   3 -4.3599999999999992e-14      8.1378756805668004      3.3010724808649616
   111   3      5.8267547982065553      8.1378756805668004      3.3010724808649616
   112   3       4.132202971906807      2.3857284981765692      1.3166483637921624
   113   3      9.9589577701134058      2.3857284981765692      1.3166483637921624
   114   3      1.2188255728034858      7.4318461750463234      1.3166483637921624
   115   3      7.0455803710100851      7.4318461750463234      1.3166483637921624
   116   3      4.1668439874636061      9.1389415629889204      7.7726533332027294
   117   3      6.0406704456680904      7.8750381897645845      10.309292491467421
   118   3      4.5312426435189908       9.125509786643148      11.766336739610111
   119   3      2.9330838732940818      7.0831620710925431      7.8987944508684178
   120   3      4.6367095376809955      4.1616083905032237      7.5919115762895331
   121   3      7.5760702413499041      9.1430801743366477      7.6919996732399953
   122   3      1.7365932205365959      9.2115482790162151      7.7498818712337814
   123   3      7.5355737579442721      7.6974010403012656      5.7667195420530302
   124   3      1.7136871039930586      7.6805006777523666      5.8675034305096325
   125   3      8.7641736142043278      7.5551984110513741      11.544321028336803
   126   3      6.8094337670193203      2.9334954759435576      10.821610516710402
   127   3      2.1373153200346908       4.928553373823525      9.9228778812511145
   128   3      11.051247643644597      9.2169253506480722      12.233537970102129
   129   3       4.134229673107142     0.97717983658635332      3.3010724808649616
   130   3       8.740132197309876      3.0917580036970467      3.3010724808649616
   131   3      4.7109845006702606         1.4747390382771      12.161867476367085
   132   3      2.4179525778857145      9.6393803586775029      10.735980649644658
   133   3      5.8267547982065553      5.3207783573863692      1.3166483637921624
   134   3      9.1422463694945861      5.0394029807538194      11.326175410276171
   135   3      5.9736257534180979      4.7356942567720015      5.7219528573333998
   136   3        11.3143977872716       4.220616619990758      9.9555155852237025
   137   3      8.7597000603244961       7.037843866982147       7.755076015182687
   138   3      1.6945518262997477      2.3857284981765683      1.3166483637921624
   139   3       9.963783877563035      7.6555940014124095      5.7160069233080444
   140   3      9.9609844713137417     0.97717983658635332      3.3010724808649616
   141   3      7.0476070722104192      6.0232975134561082      3.3010724808649616
   142   3      10.040055023028041      9.1198464070770129      7.6097351916001967
   143   3      1.1331989794049351      4.0360900025770645       7.680915524730036
   144   3      7.0697988883854226      4.0144209966441693       7.768564074248026
   145   3       2.951147920608256      9.8207619377804978       5.765060003224713
   146   3      8.7673987298719176      9.8185865338106506      5.7008052867122219
   147   3      4.6547482939624762      2.6421411068864051      5.7224817537999986
   148   3      10.381595010398874      2.5719092164499218      5.6856206749790861
   149   3      4.6079292254030255      7.4318461750463234      1.3166483637921624
   150   3      1.6925251250994144     0.97717983658635321      3.3010724808649616
   151   3      10.542177190072357      1.8570789138745392      10.629029507072106
   152   3      8.3153217036074949     0.72189862351563205      11.861120761331463
   153   3      1.9842120521944482       5.869495319517708      13.025214057582433
   154   3      7.0986659802380574      5.2998870155537992      9.9575651629063096
   155   3     0.88490813421608228      1.2821926297522694      12.504017173690293
   156   3      3.1483394133372045      7.1249936131511538      10.544807539583092
   157   3      7.5213066245063471      2.3857284981765683      1.3166483637921624
   158   3      2.5350408204114849      2.0486840473346932      10.533500570264183
   159   3      10.434684023609625      7.4318461750463234      1.3166483637921624
   160   3      5.7413317232468977       1.986922692704012      7.7696888240417303
   161   3   -0.078458155876367799      1.9097506991016966      7.7340303102327104
   162   3      1.2208522740038206      6.0232975134561082      3.3010724808649616
   163   3      7.1022418755720151      2.5647547260530432      5.8275079185768908
   164   3      1.1565270851514016      2.6189235197240559      5.6776472058514154
   165   3      4.1173664536231049      7.6748589045581648      5.8476146322777973
   166   3      4.6059025242026905      6.0232975134561082      3.3010724808649616
   167   3      7.0553732683747725       8.624389512507566       12.84343105452349
   168   3      1.0174287030958096       3.631316075995902      11.949615710348844
   169   3      9.3763946362297172      9.3948945150494581      10.146383692143765
   170   3      9.2147802314968086      3.0785000248461514      12.964283542423459
   171   3   -0.060419300257956332       4.757481295946854      5.7074909644884695
   172   3      4.6079718942617252        3.20166737671879      10.009457945331347
   173   3      11.398523779891194       6.219356706462527      11.927820795940372
   174   3      3.9924984462233502      4.4424171492605948      12.222978769363808
   175   3      6.4959624606970996     0.18625825667369988      10.468609284934034
   176   3      5.7063894571838905      6.1807806078993943      12.050458139559019
   177   3     0.32831940483196942      8.1989344199876442      10.037245064871387
   178   3 -4.3599999999999992e-14      5.3207783573863692      1.3166483637921624
   179   3       8.740132197309876      0.2746606805166148      1.3166483637921624
   180   3      2.9133773991032776      0.2746606805166148      1.3166483637921624
   181   3      10.432657322409289      6.0232975134561082      3.3010724808649616
   182   3       7.519279923306013     0.97717983658635321      3.3010724808649616
   183   4   -0.085922671711943954      3.3245077123658069      6.7201644617309579
   184   4      5.8584378417377296      3.3423567339665889      6.7524828128217029
   185   4      2.9133773991032776      1.6820392256232506      2.2987940834959804
   186   4 -4.3599999999999992e-14      6.7281569024930041      2.2987940834959804
   187   4      2.9175553664849025      8.4472442446999061      6.7978208215086315
   188   4      8.7799121996329426      8.4246370276273463      6.7299953461983062
   189   4      5.8267547982065553      6.7281569024930041      2.2987940834959804
   190   4       8.740132197309876      1.6820392256232506      2.2987940834959804
