LAMMPS data file via write_data, version 23 Jun 2022, timestep = 1

144 atoms
5 atom types

0 11.6531699554688 xlo xhi
0 10.0919412160536 ylo yhi
0 30 zlo zhi

Masses

1 1.008
2 14.007
3 18.998403163
4 28.085
5 126.90447

Atoms # atomic

1 1 0.8377148099836284 2.880325534303025 3.8038507225754685 0 0 0
2 1 8.378474384180674 1.286971369179506 9.387997877450385 0 0 0
3 1 11.207432973155608 5.804177641029856 8.421146595452646 -1 0 0
4 1 6.207847755678559 5.920240915762079 8.848125779469813 0 0 0
5 1 0.8409352596514178 9.606427017522808 0.5 0 0 0
6 1 6.667520237385817 9.606427017522808 0.5 0 0 0
7 1 2.9132924888672185 6.016999005088379 0.5 0 0 0
8 1 0.4386297142677831 0.9167666864746105 5.522557040171796 0 0 0
9 1 3.7510072988508103 7.926296142329836 3.8038507225754685 0 0 0
10 1 9.57759227658521 7.926296142329836 3.8038507225754685 0 0 0
11 1 3.3563485846302257 0.7776495795383265 8.616354991554262 0 0 0
12 1 6.6642997877180274 2.880325534303025 3.8038507225754685 0 0 0
13 1 6.326181167406289 9.198844240067615 5.817747512544283 0 0 0
14 1 2.9132924888672185 8.409951013377999 2.433430174058233 0 0 0
15 1 9.580812726253036 4.560456409495997 0.5 0 0 0
16 1 3.7542277485186357 4.560456409495997 0.5 0 0 0
17 1 7.902162656618025 7.926296142329836 3.8038507225754685 0 0 0
18 1 4.988870167750845 2.880325534303025 3.8038507225754685 0 0 0
19 1 10.815455145485245 2.880325534303025 3.8038507225754685 0 0 0
20 1 6.308844066483016 7.59264753355977 8.518970723135613 0 0 0
21 1 11.074146214297865 7.5154716320419075 8.554361365911056 0 0 0
22 1 9e-16 0 1.8692122630551729 0 0 0
23 1 0.0891210042798607 9.464876707600549 4.886996096420019 0 0 0
24 1 2.9132924888672185 5.045970608026792 1.8692122630551729 0 0 0
25 1 3.79e-14 3.363980405351189 2.433430174058233 0 0 0
26 1 5.826584977734437 3.363980405351189 2.433430174058233 0 0 0
27 1 8.253413358355838 5.509515133802642 4.853522584004705 0 0 0
28 1 2.9132924888672185 9.377260755474325 3.8038507225754685 0 0 0
29 1 8.375547215898958 2.613759367058369 8.372699359480992 0 0 0
30 1 4.784611460330761 6.86484222731822 8.809799423012251 0 0 0
31 1 3.4394909349531058 2.4711560967894233 8.657270101845658 0 0 0
32 1 3.059098970379939 1.6834669544417995 7.251709541288456 0 0 0
33 1 8.730018912753394 1.0772122387709904 7.7526068191913335 0 0 0
34 1 0.0230360730979414 6.815943156485778 7.185268180911308 0 0 0
35 1 5.622140893265682 6.510827071858446 7.427933486339431 0 0 0
36 1 1.9245759080079008 1.7017813441893894 8.47310674650661 0 0 0
37 1 6.293926121832581 0.4850780203356348 4.866784250228004 0 0 0
38 1 3.5066181773316627 5.875546395877699 5.803456054394903 0 0 0
39 1 9.722695964620641 4.961291961606589 5.508866714332916 0 0 0
40 1 4.985649718083021 9.60642701752281 0.5 0 0 0
41 1 0.9721903805495514 6.7672984008075225 8.534744462537983 0 0 0
42 1 7.898942206950239 4.560456409496 0.5 0 0 0
43 1 2.07235722921584 4.560456409496 0.5 0 0 0
44 1 10.81223469581742 9.60642701752281 0.5 0 0 0
45 1 9.846895118613807 1.8551307116167495 8.725822719640487 0 0 0
46 1 5.826584977734437 4.331290147447514 3.8038507225754685 0 0 0
47 1 3.79e-14 4.331290147447514 3.8038507225754685 0 0 0
48 1 8.739877466601618 9.377260755474325 3.8038507225754685 0 0 0
49 1 8.280258270280317 4.111303066508357 5.775778937263918 0 0 0
50 1 8.554638080844132 5.61145267132123 6.511198343283135 0 0 0
51 1 2.319981391307506 4.877065985356134 6.482327747858325 0 0 0
52 1 6.015875115264686 0.6159666216904216 6.526059497059388 0 0 0
53 1 3.4803096578404373 4.213212368976595 5.488392359235424 0 0 0
54 1 2.075577678883626 7.926296142329836 3.8038507225754685 0 0 0
55 1 2.2924068742696155 5.2450941683509535 4.8368485362059275 0 0 0
56 1 10.630821745392923 0.1492352679370444 5.878382524969612 0 0 0
57 1 4.850644224236363 10.001290691772603 5.555850528048384 0 -1 0
58 1 5.826584977734437 0.9710283970615677 0.5 0 0 0
59 1 8.739877466601618 6.016999005088379 0.5 0 0 0
60 1 0.4327124309630156 9.673115683504697 6.521678259237484 0 -1 0
61 1 8.739877466601618 5.045970608026792 1.8692122630551729 0 0 0
62 1 8.739877466601618 8.409951013377999 2.433430174058233 0 0 0
63 1 3.79e-14 0.9710283970615677 0.5 0 0 0
64 1 5.8265849777344005 0 1.8692122630551729 0 0 0
65 2 2.901756709865389 5.052264282917448 5.642654296128077 0 0 0
66 2 9e-16 0 0.8425449303043501 0 0 0
67 2 5.826584977734437 3.363980405351189 3.459755716844063 0 0 0
68 2 11.63516429333709 0.0047263626678002 5.69172250745702 -1 0 0
69 2 5.732137007209985 6.730160867962214 8.432187379478473 0 0 0
70 2 11.645547757593516 6.721865719901648 8.210793022988907 -1 0 0
71 2 8.839138091160518 1.7082662886887996 8.570302868439176 0 0 0
72 2 2.937414880997379 1.6561270313508014 8.27254510171173 0 0 0
73 2 5.868733082106816 0.028701596325207 5.683736061060068 0 0 0
74 2 2.9132924888672185 8.409951013377999 3.459755716844063 0 0 0
75 2 8.739877466601618 5.045970608026792 0.8425449303043501 0 0 0
76 2 2.9132924888672185 5.045970608026792 0.8425449303043501 0 0 0
77 2 3.79e-14 3.363980405351189 3.459755716844063 0 0 0
78 2 5.8265849777344005 0 0.8425449303043501 0 0 0
79 2 8.739877466601618 8.409951013377999 3.459755716844063 0 0 0
80 2 8.70477479271174 5.048382056567579 5.6535224331940475 0 0 0
81 3 9.880974124755822 8.821824394835843 8.36310217702216 0 0 0
82 3 3.0653868672257683 9.725439063633841 6.004663318213406 0 0 0
83 3 7.107348254917018 3.934163636363792 8.200574948769992 0 0 0
84 3 1.3446826131777767 4.147791724569884 7.819112279158768 0 0 0
85 3 8.800234471790883 9.935196595292576 6.484991180788035 0 0 0
86 3 4.585511291272723 2.8054997356188878 6.112017280522496 0 0 0
87 3 5.787050527240467 4.885636234077843 6.366335754621757 0 0 0
88 3 11.524094553300587 4.701181575440518 5.982945458703773 -1 0 0
89 3 2.7831281738501286 7.071006949892116 8.209936941272398 0 0 0
90 3 1.7442794527953078 7.663023779819946 6.06323811550188 0 0 0
91 3 7.037181414077065 2.8494999503367175 6.015687218643466 0 0 0
92 3 10.344256361178413 2.6180905581082197 6.311119868343226 0 0 0
93 3 4.606815503268056 7.43219504513485 1.3160654148748374 0 0 0
94 3 0.1134761861553098 2.0636480252707177 8.218325715228573 0 0 0
95 3 5.826584977734436 8.137440937299745 3.3003459413423974 0 0 0
96 3 8.611657008198886 6.775802567428701 7.875217822093996 0 0 0
97 3 1.220645595762649 6.023220747403721 3.3003459413423974 0 0 0
98 3 7.047230573497048 6.023220747403721 3.3003459413423974 0 0 0
99 3 1.6935230144008373 2.386224437108058 1.3160654148748374 0 0 0
100 3 8.739877466601618 3.0914703292729544 3.3003459413423974 0 0 0
101 3 2.913292488867218 3.0914703292729544 3.3003459413423974 0 0 0
102 3 3.66e-14 8.137440937299745 3.3003459413423974 0 0 0
103 3 7.506105544227072 7.913550437140859 6.034818816945179 0 0 0
104 3 9.960523062364231 0.9772501393769296 3.3003459413423974 0 0 0
105 3 9.959646941068 2.3862244371080585 1.3160654148748374 0 0 0
106 3 10.433400481002453 7.43219504513485 1.3160654148748374 0 0 0
107 3 5.92345980272885 1.8121742871708497 7.869806539259072 0 0 0
108 3 7.520107992135237 2.386224437108058 1.3160654148748374 0 0 0
109 3 7.046354452200818 7.432195045134851 1.3160654148748374 0 0 0
110 3 4.1330619633336 2.3862244371080585 1.3160654148748374 0 0 0
111 3 4.043294174548719 9.125324614228719 8.135951796234362 0 0 0
112 3 1.2197694744664185 7.432195045134851 1.3160654148748374 0 0 0
113 3 1.6022849449121712 9.209100404342639 7.887675851235832 0 0 0
114 3 4.696905788103675 3.8781102737365383 8.321773242625493 0 0 0
115 3 10.582654928397488 4.1792291232142285 8.175427957880927 0 0 0
116 3 1.0902551106022058 2.5644588184559893 6.024478034017355 0 0 0
117 3 9.928487379787416 7.819301217167512 6.130489263062131 0 0 0
118 3 4.144971127192679 7.559562195790043 6.2454892049643105 0 0 0
119 3 4.133938084629831 0.9772501393769296 3.3003459413423974 0 0 0
120 3 8.739877466601618 0.2735217338106973 1.3160654148748374 0 0 0
121 3 7.059299124346269 3.2143471695329815 12.979187858010052 0 0 0
122 3 5.625393813069574 1.1536829050672848 12.922848635403401 0 0 0
123 3 3.79e-14 5.319492341837489 1.3160654148748374 0 0 0
124 3 5.826584977734437 5.319492341837489 1.3160654148748374 0 0 0
125 3 4.39429970696094 1.5748053427021254 10.76697981409569 0 0 0
126 3 4.40726061174912 3.346045467198234 12.777188535162214 0 0 0
127 3 7.202971458730542 1.4179645213087064 10.976599889804513 0 0 0
128 3 7.455907909088747 8.89585938249395 8.239969745646897 0 0 0
129 3 7.519231870839008 0.9772501393769297 3.3003459413423974 0 0 0
130 3 4.605939381971826 6.023220747403721 3.3003459413423974 0 0 0
131 3 10.432524359706225 6.023220747403721 3.3003459413423974 0 0 0
132 3 1.6926468931046077 0.9772501393769297 3.3003459413423974 0 0 0
133 3 2.9132924888672185 0.2735217338106973 1.3160654148748374 0 0 0
134 4 2.895668078046072 8.397787622755683 7.108347522970192 0 0 0
135 4 5.849198291820226 3.3682914729520586 7.162455319937624 0 0 0
136 4 8.71075167758557 8.350827351230656 7.209580981938283 0 0 0
137 4 2.9132924888672185 1.6819902026756042 2.3016856341631255 0 0 0
138 4 5.826584977734437 6.727960810702395 2.3016856341631255 0 0 0
139 4 8.739877466601618 1.6819902026756042 2.3016856341631255 0 0 0
140 4 3.79e-14 6.727960810702395 2.3016856341631255 0 0 0
141 4 11.646400069063967 3.3728691083689637 7.098301133319585 -1 0 0
142 5 5.78411638393012 2.560021848945223 11.711604871648268 0 0 0
143 1 8.451271452685365 0.6006592647762992 14.6855191297032 0 0 0
144 3 8.940818565785928 0.04173886618314321 15.272856586316903 0 0 0

Velocities

1 0 0 0
2 0 0 0
3 0 0 0
4 0 0 0
5 0 0 0
6 0 0 0
7 0 0 0
8 0 0 0
9 0 0 0
10 0 0 0
11 0 0 0
12 0 0 0
13 0 0 0
14 0 0 0
15 0 0 0
16 0 0 0
17 0 0 0
18 0 0 0
19 0 0 0
20 0 0 0
21 0 0 0
22 0 0 0
23 0 0 0
24 0 0 0
25 0 0 0
26 0 0 0
27 0 0 0
28 0 0 0
29 0 0 0
30 0 0 0
31 0 0 0
32 0 0 0
33 0 0 0
34 0 0 0
35 0 0 0
36 0 0 0
37 0 0 0
38 0 0 0
39 0 0 0
40 0 0 0
41 0 0 0
42 0 0 0
43 0 0 0
44 0 0 0
45 0 0 0
46 0 0 0
47 0 0 0
48 0 0 0
49 0 0 0
50 0 0 0
51 0 0 0
52 0 0 0
53 0 0 0
54 0 0 0
55 0 0 0
56 0 0 0
57 0 0 0
58 0 0 0
59 0 0 0
60 0 0 0
61 0 0 0
62 0 0 0
63 0 0 0
64 0 0 0
65 0 0 0
66 0 0 0
67 0 0 0
68 0 0 0
69 0 0 0
70 0 0 0
71 0 0 0
72 0 0 0
73 0 0 0
74 0 0 0
75 0 0 0
76 0 0 0
77 0 0 0
78 0 0 0
79 0 0 0
80 0 0 0
81 0 0 0
82 0 0 0
83 0 0 0
84 0 0 0
85 0 0 0
86 0 0 0
87 0 0 0
88 0 0 0
89 0 0 0
90 0 0 0
91 0 0 0
92 0 0 0
93 0 0 0
94 0 0 0
95 0 0 0
96 0 0 0
97 0 0 0
98 0 0 0
99 0 0 0
100 0 0 0
101 0 0 0
102 0 0 0
103 0 0 0
104 0 0 0
105 0 0 0
106 0 0 0
107 0 0 0
108 0 0 0
109 0 0 0
110 0 0 0
111 0 0 0
112 0 0 0
113 0 0 0
114 0 0 0
115 0 0 0
116 0 0 0
117 0 0 0
118 0 0 0
119 0 0 0
120 0 0 0
121 0 0 0
122 0 0 0
123 0 0 0
124 0 0 0
125 0 0 0
126 0 0 0
127 0 0 0
128 0 0 0
129 0 0 0
130 0 0 0
131 0 0 0
132 0 0 0
133 0 0 0
134 0 0 0
135 0 0 0
136 0 0 0
137 0 0 0
138 0 0 0
139 0 0 0
140 0 0 0
141 0 0 0
142 0 0 0
143 0 0 0
144 0 0 0
