LAMMPS (23 Jun 2022 - Update 4)
Reading data file ...
  orthogonal box = (0 0 0) to (11.65317 10.091941 30)
  1 by 1 by 1 MPI processor grid
  reading atoms ...
  142 atoms
  read_data CPU = 0.001 seconds
Read molecule template my_mol:
  1 molecules
  0 fragments
  2 atoms with max type 3
  0 bonds with max type 0
  0 angles with max type 0
  0 dihedrals with max type 0
  0 impropers with max type 0
WARNING: Molecule attributes do not match system attributes (src/molecule.cpp:1696)
WARNING: No fixes with time integration, atoms won't move (src/verlet.cpp:60)
Setting up Verlet run ...
  Unit style    : metal
  Current step  : 0
  Time step     : 0.001
WARNING: No pairwise cutoff or binsize set. Atom sorting therefore disabled. (src/atom.cpp:2142)
WARNING: Communication cutoff is 0.0. No ghost atoms will be generated. Atoms may get lost. (src/comm_brick.cpp:210)
Per MPI rank memory allocation (min/avg/max) = 2.289 | 2.289 | 2.289 Mbytes
   Step          Temp          E_pair         E_mol          TotEng         Press     
         0   0              0              0              0              0            
         1   0              0              0              0              0            
Loop time of 2.379e-05 on 1 procs for 1 steps with 144 atoms

Performance: 3631.778 ns/day, 0.007 hours/ns, 42034.468 timesteps/s
84.1% CPU use with 1 MPI tasks x no OpenMP threads

MPI task timing breakdown:
Section |  min time  |  avg time  |  max time  |%varavg| %total
---------------------------------------------------------------
Pair    | 0          | 0          | 0          |   0.0 |  0.00
Neigh   | 3.2e-07    | 3.2e-07    | 3.2e-07    |   0.0 |  1.35
Comm    | 1.765e-06  | 1.765e-06  | 1.765e-06  |   0.0 |  7.42
Output  | 2.27e-06   | 2.27e-06   | 2.27e-06   |   0.0 |  9.54
Modify  | 1.7795e-05 | 1.7795e-05 | 1.7795e-05 |   0.0 | 74.80
Other   |            | 1.64e-06   |            |       |  6.89

Nlocal:            144 ave         144 max         144 min
Histogram: 1 0 0 0 0 0 0 0 0 0
Nghost:              4 ave           4 max           4 min
Histogram: 1 0 0 0 0 0 0 0 0 0
Neighs:              0 ave           0 max           0 min
Histogram: 1 0 0 0 0 0 0 0 0 0

Total # of neighbors = 0
Ave neighs/atom = 0
Neighbor list builds = 1
Dangerous builds = 0
System init for write_data ...
WARNING: Communication cutoff is 0.0. No ghost atoms will be generated. Atoms may get lost. (src/comm_brick.cpp:210)
Total wall time: 0:00:00
