LAMMPS data file via write_data, version 23 Jun 2022, timestep = 0

136 atoms
4 atom types

0 11.653509596413 xlo xhi
0 10.09223535374 ylo yhi
0 24.290024512877 zlo zhi
0 0 0 xy xz yz

Masses

1 1.0078
2 14.0067
3 18.9984
4 28.0855

Atoms # atomic

1 1 2.913377399103 9.378897463144 3.804309529455 0 0 0
2 1 8.74013219731 9.378897463144 3.804309529455 0 0 0
3 1 0 4.332779786275001 3.804309529455 0 0 0
4 1 5.826754798206999 4.332779786275001 3.804309529455 0 0 0
5 1 4.985498405915 9.606535749193 0.5 0 0 0
6 1 10.812253204122 9.606535749193 0.5 0 0 0
7 1 2.072121006812 4.560418072323 0.5 0 0 0
8 1 7.898875805019 4.560418072323 0.5 0 0 0
9 1 0 0 1.866758950347 0 0 0
10 1 5.826754798206999 0 1.866758950347 0 0 0
11 1 2.913377399103 5.04611767687 1.866758950347 0 0 0
12 1 8.74013219731 5.04611767687 1.866758950347 0 0 0
13 1 0 0 6.511771206785 0 0 0
14 1 5.826754798206999 0 6.511771206785 0 0 0
15 1 2.913377399103 5.04611767687 6.511771206785 0 0 0
16 1 8.74013219731 5.04611767687 6.511771206785 0 0 0
17 1 0.8412563922910001 9.606535749193 0.5 0 0 0
18 1 6.668011190498 9.606535749193 0.5 0 0 0
19 1 3.7546337913949994 4.560418072323 0.5 0 0 0
20 1 9.581388589601 4.560418072323 0.5 0 0 0
21 1 2.913377399103 8.410196128116 2.432163375632 0 0 0
22 1 8.74013219731 8.410196128116 2.432163375632 0 0 0
23 1 0 3.364078451247001 2.432163375632 0 0 0
24 1 5.826754798206999 3.364078451247001 2.432163375632 0 0 0
25 1 2.913377399103 4.074718467776001 5.145012256438 0 0 0
26 1 8.74013219731 4.074718467776001 5.145012256438 0 0 0
27 1 0 9.120836144646 5.145012256438 0 0 0
28 1 5.826754798206999 9.120836144646 5.145012256438 0 0 0
29 1 3.752297363918 7.925845460602003 3.804309529455 0 0 0
30 1 9.579052162124 7.925845460602003 3.804309529455 0 0 0
31 1 0.838919964814 2.879727783732 3.804309529455 0 0 0
32 1 6.665674763021 2.879727783732 3.804309529455 0 0 0
33 1 2.913377399103 6.017516885964 0.5 0 0 0
34 1 8.74013219731 6.017516885964 0.5 0 0 0
35 1 0 0.9713992090940001 0.5 0 0 0
36 1 5.826754798206999 0.9713992090940001 0.5 0 0 0
37 1 4.985498405915 0.48569960454700006 5.145012256438 0 0 0
38 1 10.812253204122 0.48569960454700006 5.145012256438 0 0 0
39 1 2.072121006812 5.531817281417001 5.145012256438 0 0 0
40 1 7.898875805019 5.531817281417001 5.145012256438 0 0 0
41 1 2.074457434289 7.925845460602003 3.804309529455 0 0 0
42 1 7.9012122324959995 7.925845460602003 3.804309529455 0 0 0
43 1 4.987834833392 2.879727783732 3.804309529455 0 0 0
44 1 10.814589631599 2.879727783732 3.804309529455 0 0 0
45 1 3.752297363918 2.1663898931370005 8.449321785893 0 0 0
46 1 9.579052162124 2.1663898931370005 8.449321785893 0 0 0
47 1 0.838919964814 7.212507570007 8.449321785893 0 0 0
48 1 6.665674763021 7.212507570007 8.449321785893 0 0 0
49 1 2.074457434289 2.1663898931370005 8.449321785893 0 0 0
50 1 7.9012122324959995 2.1663898931370005 8.449321785893 0 0 0
51 1 4.987834833392 7.212507570007 8.449321785893 0 0 0
52 1 10.814589631599 7.212507570007 8.449321785893 0 0 0
53 1 2.913377399103 1.6820392256230001 7.077175632071 0 0 0
54 1 8.74013219731 1.6820392256230001 7.077175632071 0 0 0
55 1 0 6.728156902493 7.077175632071 0 0 0
56 1 5.826754798206999 6.728156902493 7.077175632071 0 0 0
57 1 0.8412563922910001 0.48569960454700006 5.145012256438 0 0 0
58 1 6.668011190498 0.48569960454700006 5.145012256438 0 0 0
59 1 3.7546337913949994 5.531817281417001 5.145012256438 0 0 0
60 1 9.581388589601 5.531817281417001 5.145012256438 0 0 0
61 1 2.913377399103 0.713337890595 8.449321785893 0 0 0
62 1 8.74013219731 0.713337890595 8.449321785893 0 0 0
63 1 0 5.759455567465 8.449321785893 0 0 0
64 1 5.826754798206999 5.759455567465 8.449321785893 0 0 0
65 2 2.913377399103 8.410196128116 3.4593945362619998 0 0 0
66 2 8.74013219731 8.410196128116 3.4593945362619998 0 0 0
67 2 0 3.364078451247001 3.4593945362619998 0 0 0
68 2 5.826754798206999 3.364078451247001 3.4593945362619998 0 0 0
69 2 2.913377399103 1.6820392256230001 8.104406792701 0 0 0
70 2 8.74013219731 1.6820392256230001 8.104406792701 0 0 0
71 2 0 6.728156902493 8.104406792701 0 0 0
72 2 5.826754798206999 6.728156902493 8.104406792701 0 0 0
73 2 0 0 5.486642680795 0 0 0
74 2 5.826754798206999 0 5.486642680795 0 0 0
75 2 2.913377399103 5.04611767687 5.486642680795 0 0 0
76 2 8.74013219731 5.04611767687 5.486642680795 0 0 0
77 2 0 0 0.841630424356 0 0 0
78 2 5.826754798206999 0 0.841630424356 0 0 0
79 2 2.913377399103 5.04611767687 0.841630424356 0 0 0
80 2 8.74013219731 5.04611767687 0.841630424356 0 0 0
81 3 4.132202971907 7.706506855563003 5.961660620231 0 0 0
82 3 9.958957770113 7.706506855563003 5.961660620231 0 0 0
83 3 1.218825572803 2.6603891786930003 5.961660620231 0 0 0
84 3 7.04558037101 2.6603891786930003 5.961660620231 0 0 0
85 3 1.692525125099 9.115055517153 7.946084737303 0 0 0
86 3 7.519279923306 9.115055517153 7.946084737303 0 0 0
87 3 4.605902524203 4.068937840283 7.946084737303 0 0 0
88 3 10.432657322409 4.068937840283 7.946084737303 0 0 0
89 3 4.134229673107 9.115055517153 7.946084737303 0 0 0
90 3 9.960984471314 9.115055517153 7.946084737303 0 0 0
91 3 1.220852274004 4.068937840283 7.946084737303 0 0 0
92 3 7.04760707221 4.068937840283 7.946084737303 0 0 0
93 3 2.913377399103 9.817574673223001 5.961660620231 0 0 0
94 3 8.74013219731 9.817574673223001 5.961660620231 0 0 0
95 3 0 4.771456996353001 5.961660620231 0 0 0
96 3 5.826754798206999 4.771456996353001 5.961660620231 0 0 0
97 3 2.913377399103 3.091758003697 3.301072480865 0 0 0
98 3 8.74013219731 3.091758003697 3.301072480865 0 0 0
99 3 0 8.137875680567 3.301072480865 0 0 0
100 3 5.826754798206999 8.137875680567 3.301072480865 0 0 0
101 3 4.132202971907 2.385728498177 1.3166483637919997 0 0 0
102 3 9.958957770113 2.385728498177 1.3166483637919997 0 0 0
103 3 1.218825572803 7.431846175046 1.3166483637919997 0 0 0
104 3 7.04558037101 7.431846175046 1.3166483637919997 0 0 0
105 3 1.6945518263 7.706506855563003 5.961660620231 0 0 0
106 3 7.521306624506 7.706506855563003 5.961660620231 0 0 0
107 3 4.607929225403 2.6603891786930003 5.961660620231 0 0 0
108 3 10.43468402361 2.6603891786930003 5.961660620231 0 0 0
109 3 2.913377399103 7.000477350042002 7.946084737303 0 0 0
110 3 8.74013219731 7.000477350042002 7.946084737303 0 0 0
111 3 0 1.9543596731730002 7.946084737303 0 0 0
112 3 5.826754798206999 1.9543596731730002 7.946084737303 0 0 0
113 3 4.134229673107 0.977179836586 3.301072480865 0 0 0
114 3 9.960984471314 0.977179836586 3.301072480865 0 0 0
115 3 1.220852274004 6.023297513456001 3.301072480865 0 0 0
116 3 7.04760707221 6.023297513456001 3.301072480865 0 0 0
117 3 1.6945518263 2.385728498177 1.3166483637919997 0 0 0
118 3 7.521306624506 2.385728498177 1.3166483637919997 0 0 0
119 3 4.607929225403 7.431846175046 1.3166483637919997 0 0 0
120 3 10.43468402361 7.431846175046 1.3166483637919997 0 0 0
121 3 1.692525125099 0.977179836586 3.301072480865 0 0 0
122 3 7.519279923306 0.977179836586 3.301072480865 0 0 0
123 3 4.605902524203 6.023297513456001 3.301072480865 0 0 0
124 3 10.432657322409 6.023297513456001 3.301072480865 0 0 0
125 3 2.913377399103 0.274660680517 1.3166483637919997 0 0 0
126 3 8.74013219731 0.274660680517 1.3166483637919997 0 0 0
127 3 0 5.320778357386001 1.3166483637919997 0 0 0
128 3 5.826754798206999 5.320778357386001 1.3166483637919997 0 0 0
129 4 2.913377399103 1.6820392256230001 2.298794083496 0 0 0
130 4 8.74013219731 1.6820392256230001 2.298794083496 0 0 0
131 4 0 6.728156902493 2.298794083496 0 0 0
132 4 5.826754798206999 6.728156902493 2.298794083496 0 0 0
133 4 2.913377399103 8.410196128116 6.9438063399339995 0 0 0
134 4 8.74013219731 8.410196128116 6.9438063399339995 0 0 0
135 4 0 3.364078451247001 6.9438063399339995 0 0 0
136 4 5.826754798206999 3.364078451247001 6.9438063399339995 0 0 0

Velocities

1 0 0 0
2 0 0 0
3 0 0 0
4 0 0 0
5 0 0 0
6 0 0 0
7 0 0 0
8 0 0 0
9 0 0 0
10 0 0 0
11 0 0 0
12 0 0 0
13 0 0 0
14 0 0 0
15 0 0 0
16 0 0 0
17 0 0 0
18 0 0 0
19 0 0 0
20 0 0 0
21 0 0 0
22 0 0 0
23 0 0 0
24 0 0 0
25 0 0 0
26 0 0 0
27 0 0 0
28 0 0 0
29 0 0 0
30 0 0 0
31 0 0 0
32 0 0 0
33 0 0 0
34 0 0 0
35 0 0 0
36 0 0 0
37 0 0 0
38 0 0 0
39 0 0 0
40 0 0 0
41 0 0 0
42 0 0 0
43 0 0 0
44 0 0 0
45 0 0 0
46 0 0 0
47 0 0 0
48 0 0 0
49 0 0 0
50 0 0 0
51 0 0 0
52 0 0 0
53 0 0 0
54 0 0 0
55 0 0 0
56 0 0 0
57 0 0 0
58 0 0 0
59 0 0 0
60 0 0 0
61 0 0 0
62 0 0 0
63 0 0 0
64 0 0 0
65 0 0 0
66 0 0 0
67 0 0 0
68 0 0 0
69 0 0 0
70 0 0 0
71 0 0 0
72 0 0 0
73 0 0 0
74 0 0 0
75 0 0 0
76 0 0 0
77 0 0 0
78 0 0 0
79 0 0 0
80 0 0 0
81 0 0 0
82 0 0 0
83 0 0 0
84 0 0 0
85 0 0 0
86 0 0 0
87 0 0 0
88 0 0 0
89 0 0 0
90 0 0 0
91 0 0 0
92 0 0 0
93 0 0 0
94 0 0 0
95 0 0 0
96 0 0 0
97 0 0 0
98 0 0 0
99 0 0 0
100 0 0 0
101 0 0 0
102 0 0 0
103 0 0 0
104 0 0 0
105 0 0 0
106 0 0 0
107 0 0 0
108 0 0 0
109 0 0 0
110 0 0 0
111 0 0 0
112 0 0 0
113 0 0 0
114 0 0 0
115 0 0 0
116 0 0 0
117 0 0 0
118 0 0 0
119 0 0 0
120 0 0 0
121 0 0 0
122 0 0 0
123 0 0 0
124 0 0 0
125 0 0 0
126 0 0 0
127 0 0 0
128 0 0 0
129 0 0 0
130 0 0 0
131 0 0 0
132 0 0 0
133 0 0 0
134 0 0 0
135 0 0 0
136 0 0 0
