ITEM: TIMESTEP
0
ITEM: NUMBER OF ATOMS
178
ITEM: BOX BOUNDS pp pp ff
0.0000000000000000e+00 1.1653169955468799e+01
0.0000000000000000e+00 1.0091941216053600e+01
0.0000000000000000e+00 3.7118939999999995e+01
ITEM: ATOMS id type element xu yu zu fx fy fz
1 1 F 7.81752 7.72902 0.816065 0 0 0
2 1 F 6.59678 2.25267 7.40122 0.0853591 0.0517154 -0.0185901
3 1 F 11.2046 7.72902 0.816065 0 0 0
4 1 F 5.37798 7.72902 0.816065 0 0 0
5 1 F 8.29127 2.68305 0.816065 0 0 0
6 1 F 2.46469 2.68305 0.816065 0 0 0
7 1 F 7.8184 6.32004 2.80035 0 0 0
8 1 F 1.99181 6.32004 2.80035 0 0 0
9 1 F 10.7317 1.27407 2.80035 0 0 0
10 1 F 4.9051 1.27407 2.80035 0 0 0
11 1 F 4.90545 8.00072 5.41686 0.0475388 -0.0314012 -0.0662233
12 1 F 10.732 8.00072 5.41686 -0.00545085 -0.00150291 -0.00805203
13 1 F 1.99216 2.95475 5.41686 0.0137873 -0.00686405 -0.0297784
14 1 F 7.81875 2.95475 5.41686 0.0509872 -0.0222496 0.0478359
15 1 F 2.46547 9.41168 7.40123 0.0340931 -0.123414 -0.379428
16 1 F 8.29205 9.41168 7.40123 0.0688857 0.0290692 -0.00127933
17 1 F 5.37876 4.36571 7.40122 0.0379796 -0.00732559 -0.0102222
18 1 F 11.2053 4.36571 7.40122 0.0130429 -0.0127398 -0.0788658
19 1 F 0.770192 2.25267 7.40122 0.0295603 0.0993423 -0.36656
20 1 F 2.46381 1.27407 2.80035 0 0 0
21 1 F 9.51007 7.29864 7.40122 0.000767777 0.0383332 -0.0159647
22 1 F 11.2024 2.95642 5.41686 -0.0675142 -0.0278166 0.0308233
23 1 F 6.59871 5.07124 5.41686 0.00871761 0.00171318 -0.0146114
24 1 F 3.68542 10.1172 5.41686 0.000443585 0.0404654 -0.0561941
25 1 F 7.81771 4.36402 7.40122 -0.0214769 -0.0432568 -0.0336002
26 1 F 1.99113 4.36402 7.40122 -0.024572 0.00333598 -0.0227067
27 1 F 10.731 9.41 7.40122 -0.0570371 0.012352 -0.0124834
28 1 F 4.90442 9.41 7.40122 -0.0587024 -0.0941908 -0.372099
29 1 F 1.6024 6.89958 15.3671 -0.0347528 0.062844 -0.0162584
30 1 F 1.99093 7.72902 0.816065 0 0 0
31 1 F 10.7308 2.68305 0.816065 0 0 0
32 1 F 4.90423 2.68305 0.816065 0 0 0
33 1 F 6.59775 8.43426 2.80035 0 0 0
34 1 F 0.771166 8.43426 2.80035 0 0 0
35 1 F 9.51104 3.38829 2.80035 0 0 0
36 1 F 3.68446 3.38829 2.80035 0 0 0
37 1 F 2.4625 8.00239 5.41686 -0.0470995 -0.0342405 -0.0669884
38 1 F 8.28909 8.00239 5.41686 0.00412603 -0.000194429 -0.00881907
39 1 F 5.37579 2.95642 5.41686 0.013268 0.00575978 -0.00889526
40 1 F 3.68348 7.29864 7.40122 -0.00454442 -0.0103282 -0.0330716
41 1 F 0.772129 5.07124 5.41686 -0.00997479 0.0263175 -0.0353338
42 1 F 8.2904 1.27407 2.80035 0 0 0
43 1 F 11.2037 6.32004 2.80035 0 0 0
44 1 F 10.4764 0.329573 11.1906 0.0880913 -0.399903 0.107913
45 1 F 11.6986 2.35199 9.91491 0.0990863 0.0315135 0.0453547
46 1 F 10.778 2.57796 12.2175 0.195238 0.0566226 0.306701
47 1 F 2.35055 2.18396 14.4785 -0.0455945 -0.0665693 0.0434966
48 1 F 1.72918 2.80899 17.0151 0.440584 0.118661 0.809291
49 1 F 0.018804 0.74069 17.1058 0.227991 0.245148 -0.0326374
50 1 F 0.640173 0.115665 14.5691 2.61763 0.744419 0.0103005
51 1 F 2.36931 0.505747 16.318 0.0770168 0.114671 0.0752262
52 1 F 3.60169 7.76731 13.9088 0.0906353 -0.101595 0.142454
53 1 F 5.86107 6.87432 15.053 -0.224446 -0.0265903 0.157137
54 1 F 5.99814 4.89806 13.24 -0.0142922 0.0999545 -0.347733
55 1 F 3.73875 5.79105 12.0958 -0.0506954 -0.208739 -0.0166104
56 1 F 5.66668 7.28275 12.6043 0.206247 -0.127747 -0.12214
57 1 F 2.61859 4.78681 14.5279 0.374518 -0.140834 -0.550448
58 1 F -0.025706 5.24959 14.4574 -0.0713415 -0.179527 -0.31769
59 1 F 0.028355 5.95304 17.0485 0.0723384 -0.12397 0.126883
60 1 F 2.67265 5.49026 17.1189 0.136416 0.10547 0.0387377
61 1 F 8.41126 1.94456 11.7724 -0.0588149 0.166911 -0.0951953
62 1 F 5.37711 6.32004 2.80035 0 0 0
63 1 F 9.63345 3.96698 10.4967 -0.0262484 0.0388629 -0.0839544
64 1 F 2.45688 9.9767 9.94928 -0.100025 0.0840689 -0.0221662
65 1 F 3.68446 0.570344 0.816065 0 0 0
66 1 F 9.51104 0.570344 0.816065 0 0 0
67 1 F 0.771166 5.61631 0.816065 0 0 0
68 1 F 6.59775 5.61631 0.816065 0 0 0
69 1 F 8.21454 2.37108 17.0583 0.158822 -0.038912 0.0367347
70 1 F 7.45533 4.28091 15.3299 0.159728 -0.0496504 0.176981
71 1 F 5.27557 2.84443 14.7001 -0.318526 -0.133178 0.0109319
72 1 F 6.03477 0.9346 16.4286 -0.00594891 -0.0387698 0.0113796
73 1 F 5.92176 3.34257 17.0528 -0.175239 0.136765 0.161461
74 1 F 10.274 7.40732 15.1995 -0.243071 0.391965 -0.155424
75 1 F 10.3309 10.0814 14.9594 -2.62242 -0.0782542 0.44219
76 1 F 8.11574 9.99251 13.444 -0.107375 -0.00427858 0.123098
77 1 F 8.05876 7.31846 13.6841 0.493909 0.178926 -0.0540368
78 1 F 8.28488 8.83801 15.6438 -0.0574976 0.052797 0.0525028
79 1 F 5.13441 9.77345 9.9805 0.127125 0.00878492 -0.0315349
80 1 F 5.10821 9.84067 12.6649 -0.0846686 0.349364 -0.118628
81 1 F 2.43068 10.0439 12.6337 0.148094 0.0666641 -0.316329
82 1 F 3.6602 8.30293 11.3461 -0.19489 0.19499 -0.419596
83 1 F 9.51201 10.1172 5.41686 -0.000930145 0.0413596 0.0573496
84 2 H 1.61272 0.782748 4.7083 0.00099006 -0.00515083 0.0268172
85 2 H 0.771166 0.296822 6.07566 0.0225418 0.000897094 0.0302982
86 2 H 6.59775 0.296822 6.07566 -0.0222089 -0.00685256 0.0295315
87 2 H 3.68381 0.993427 7.92167 -0.024306 -0.0323204 0.0668493
88 2 H 9.51104 5.34279 1.36921 0 0 0
89 2 H 3.68446 5.34279 1.36921 0 0 0
90 2 H 6.59775 0.296822 1.36921 0 0 0
91 2 H 0.771166 0.296822 1.36921 0 0 0
92 2 H 8.67011 4.85728 0 0 0 0
93 2 H 2.84352 4.85728 0 0 0 0
94 2 H 11.5834 9.90325 0 0 0 0
95 2 H 5.75681 9.90325 0 0 0 0
96 2 H 6.59775 4.62811 3.30385 0 0 0
97 2 H 9.51104 1.97881 6.59028 0.0200138 0.00984696 -0.0593674
98 2 H 0.771166 7.02478 6.59028 0.0123485 0.000210207 0.0108654
99 2 H 3.68446 5.34279 6.07566 -0.00475428 0.00575781 0.0205388
100 2 H 6.5971 6.0394 7.92167 -0.00798367 0.010516 0.000363645
101 2 H 2.83141 2.47207 7.92167 -0.0357412 -0.0472499 0.0260541
102 2 H 7.4393 0.782748 4.7083 -0.00449985 -0.00162823 0.0141542
103 2 H 4.52601 5.82872 4.7083 -0.00599197 0.00486405 0.0205219
104 2 H 10.3526 5.82872 4.7083 0.00179734 -0.00222645 0.0172686
105 2 H 0.771166 4.62811 3.30385 0 0 0
106 2 H 9.51104 9.67408 3.30385 0 0 0
107 2 H 8.66944 5.82864 4.7083 -0.000220679 -0.0015143 0.0164555
108 2 H 6.59775 3.6608 1.93343 0 0 0
109 2 H 0.771166 3.6608 1.93343 0 0 0
110 2 H 1.6121 9.90325 0 0 0 0
111 2 H 9.51104 8.70677 1.93343 0 0 0
112 2 H 3.68446 8.70677 1.93343 0 0 0
113 2 H 10.352 4.85728 0 0 0 0
114 2 H 6.59775 7.02478 6.59028 -0.0105019 0.00470682 0.0108731
115 2 H 4.52539 4.85728 0 0 0 0
116 2 H 9.51104 5.34279 6.07566 0.00260388 0.00124281 0.0289465
117 2 H 2.84674 8.22312 3.30385 0 0 0
118 2 H 8.67333 8.22312 3.30385 0 0 0
119 2 H 5.76004 3.17715 3.30385 0 0 0
120 2 H 11.5866 3.17715 3.30385 0 0 0
121 2 H 4.53815 2.47094 7.92167 -0.0108199 -0.03637 -0.0203015
122 2 H 9.51039 0.993428 7.92167 -0.0189484 -0.141154 -0.246911
123 2 H 10.3647 2.47094 7.92167 0.197963 0.106993 -0.368813
124 2 H 1.62486 7.51691 7.92167 0.0411623 0.0508137 0.0438716
125 2 H 7.45144 7.51691 7.92167 -0.0175287 0.00425101 0.00341471
126 2 H 3.68446 9.67408 3.30385 0 0 0
127 2 H 8.658 2.47207 7.92167 -0.114548 0.0824576 -0.184701
128 2 H 0.770517 6.0394 7.92167 0.00488681 -0.0110094 -0.00183753
129 2 H 5.74471 7.51804 7.92167 -0.0437695 0.0631614 0.0826281
130 2 H 11.5713 7.51804 7.92167 0.007249 0.00769761 0.0069783
131 2 H 9.51109 4.37102 4.7083 0.00344731 0.00264076 0.0131025
132 2 H 3.68446 1.97881 6.59028 0.00242722 -0.00800272 0.0157214
133 2 H 1.60888 3.17715 3.30385 0 0 0
134 2 H 10.3488 8.22312 3.30385 0 0 0
135 2 H 4.52217 8.22312 3.30385 0 0 0
136 2 H 6.5978 9.41699 4.7083 -0.00838689 0.00245441 0.0209545
137 2 H 0.771214 9.41699 4.7083 0.00938974 0.00439643 0.0213289
138 2 H 3.68451 4.37102 4.7083 -0.0023664 0.00240926 0.0218631
139 2 H 3.68446 6.31382 0 0 0 0
140 2 H 9.51104 6.31382 0 0 0 0
141 2 H 0.771166 1.26785 0 0 0 0
142 2 H 6.59775 1.26785 0 0 0 0
143 2 H 5.75615 0.782665 4.7083 -0.00474603 -0.00692942 0.0235929
144 2 H 11.5827 0.782665 4.7083 0.00855543 -0.000507111 0.01664
145 2 H 2.84286 5.82864 4.7083 0.00460154 0.00246806 0.0228823
146 2 H 7.43546 3.17715 3.30385 0 0 0
147 2 H 7.43869 9.90325 0 0 0 0
148 3 I 1.28255 5.14551 15.8499 -0.938849 0.843513 0.929311
149 3 I 6.86584 2.49995 15.7071 0.263697 -0.228965 -0.229394
150 3 I 9.94885 2.08524 10.6421 -0.360804 0.12131 0.621183
151 3 I 1.01088 1.60267 15.715 -0.72283 -2.00372 -0.986684
152 3 I 4.67275 6.1933 13.7167 0.541401 0.156571 -0.0516505
153 3 I 9.32834 8.67966 14.1278 -0.142895 -0.510406 0.0051627
154 3 I 3.80049 10.1443 11.3014 0.00934821 0.0659193 0.77072
155 4 N 6.59775 3.6608 2.95976 0 0 0
156 4 N 6.59775 0.296822 0.342545 0 0 0
157 4 N 3.68446 1.97881 7.62088 -0.00155513 0.04624 -0.0235999
158 4 N 9.51104 1.97881 7.62088 -0.0351634 -0.00436938 0.0209043
159 4 N 0.771166 7.02478 7.62088 -0.0161373 0.00934487 -0.0267091
160 4 N 0.771166 3.6608 2.95976 0 0 0
161 4 N 6.59775 7.02478 7.62088 0.029135 -0.00524795 -0.0329317
162 4 N 0.771167 0.296821 5.04741 -0.00456586 0.00163154 0.0104866
163 4 N 0.771166 0.296822 0.342545 0 0 0
164 4 N 3.68446 8.70677 2.95976 0 0 0
165 4 N 9.51104 5.34279 0.342545 0 0 0
166 4 N 3.68446 5.34279 0.342545 0 0 0
167 4 N 6.59775 0.296822 5.04741 -0.000374706 0.000435033 0.00447491
168 4 N 9.51104 8.70677 2.95976 0 0 0
169 4 N 9.51104 5.34279 5.04741 0.000562673 -0.0021824 0.00194075
170 4 N 3.68446 5.34279 5.04741 0.00127019 -0.00190117 0.00745638
171 5 Si 9.51104 1.97881 1.80169 0 0 0
172 5 Si 6.59775 3.6608 6.42034 -0.0522548 -0.00786631 0.0736614
173 5 Si 0.771166 3.6608 6.42034 0.0420208 -0.0834767 0.1933
174 5 Si 3.68446 8.70677 6.42034 -0.00354176 0.0920787 0.305645
175 5 Si 6.59775 7.02478 1.80169 0 0 0
176 5 Si 0.771166 7.02478 1.80169 0 0 0
177 5 Si 3.68446 1.97881 1.80169 0 0 0
178 5 Si 9.51104 8.70677 6.42034 0.00029153 -0.0215987 0.0514708
ITEM: TIMESTEP
100
ITEM: NUMBER OF ATOMS
178
ITEM: BOX BOUNDS pp pp ff
0.0000000000000000e+00 1.1653169955468799e+01
0.0000000000000000e+00 1.0091941216053600e+01
0.0000000000000000e+00 3.7118939999999995e+01
ITEM: ATOMS id type element xu yu zu fx fy fz
1 1 F 7.81752 7.72902 0.816065 0 0 0
2 1 F 6.75294 2.34405 7.60461 -0.140529 -0.0945848 -0.330445
3 1 F 11.2046 7.72902 0.816065 0 0 0
4 1 F 5.37798 7.72902 0.816065 0 0 0
5 1 F 8.29127 2.68305 0.816065 0 0 0
6 1 F 2.46469 2.68305 0.816065 0 0 0
7 1 F 7.8184 6.32004 2.80035 0 0 0
8 1 F 1.99181 6.32004 2.80035 0 0 0
9 1 F 10.7317 1.27407 2.80035 0 0 0
10 1 F 4.9051 1.27407 2.80035 0 0 0
11 1 F 4.97259 7.89227 5.45745 -0.186525 0.196101 0.325383
12 1 F 10.7978 7.73798 5.48097 -0.0900901 0.00428681 0.0282862
13 1 F 2.12869 2.85546 5.50456 -0.13961 0.09454 -0.152141
14 1 F 7.79511 2.9382 5.46577 -0.0319214 0.364846 0.142554
15 1 F 2.40637 9.40789 7.2264 0.38635 -0.253984 -0.0837444
16 1 F 8.42743 9.4687 7.37041 0.031234 0.00178413 -0.355548
17 1 F 5.39731 4.38306 7.52499 0.103247 0.0173638 -0.197938
18 1 F 11.1787 4.36935 7.26809 0.397543 -0.0818771 -0.358973
19 1 F 0.687778 2.23458 7.32742 0.102229 0.0619995 -0.145993
20 1 F 2.46381 1.27407 2.80035 0 0 0
21 1 F 9.43008 7.27978 7.52014 0.27058 0.0844493 -0.133281
22 1 F 11.3385 2.95125 5.24729 0.0170871 0.236157 0.347327
23 1 F 6.65336 5.16843 5.55526 -0.270909 -0.730569 0.00788149
24 1 F 3.8612 10.051 5.39289 -0.11715 -0.244766 0.107334
25 1 F 7.87934 4.45104 7.45521 0.0433718 -0.144316 -0.105476
26 1 F 2.04494 4.26731 7.50069 -0.29342 0.149886 -0.209527
27 1 F 10.9176 9.24828 7.30705 -0.103887 0.263921 0.456352
28 1 F 4.87685 9.34788 7.45318 -0.0699263 -0.265517 -0.31701
29 1 F 1.11331 6.98978 15.2626 0.313054 0.084039 -0.0969951
30 1 F 1.99093 7.72902 0.816065 0 0 0
31 1 F 10.7308 2.68305 0.816065 0 0 0
32 1 F 4.90423 2.68305 0.816065 0 0 0
33 1 F 6.59775 8.43426 2.80035 0 0 0
34 1 F 0.771166 8.43426 2.80035 0 0 0
35 1 F 9.51104 3.38829 2.80035 0 0 0
36 1 F 3.68446 3.38829 2.80035 0 0 0
37 1 F 2.52923 7.89278 5.39397 -0.0879522 0.114744 -0.478944
38 1 F 8.40599 7.93048 5.40909 -0.0570285 0.305334 0.32729
39 1 F 5.4236 2.93418 5.55104 0.404937 0.494042 0.506746
40 1 F 3.62268 7.24106 7.40055 0.212082 0.0417926 0.117494
41 1 F 1.01122 5.03115 5.45038 -0.20763 0.167987 -0.231244
42 1 F 8.2904 1.27407 2.80035 0 0 0
43 1 F 11.2037 6.32004 2.80035 0 0 0
44 1 F 10.1802 0.157835 11.2087 -0.0823406 0.29765 0.102403
45 1 F 11.5083 2.15011 9.97207 0.363881 0.0790258 -0.180593
46 1 F 10.8354 2.29686 12.3416 0.171694 0.211441 0.373507
47 1 F 2.38066 2.17363 14.4919 0.469924 -0.0819639 -0.248216
48 1 F 1.47597 2.95484 16.8643 0.112179 -1.10254 -0.0105113
49 1 F 0.114052 0.633766 17.1703 0.6618 0.330806 -0.389765
50 1 F 0.860755 -0.449734 14.8242 0.455647 1.43409 0.61401
51 1 F 2.57768 0.5781 16.5093 0.182493 0.0980516 -0.0106392
52 1 F 3.9153 7.89648 13.9257 -0.532407 0.0424877 0.302669
53 1 F 6.02712 6.75047 14.987 -0.0744983 -0.0785294 -0.273797
54 1 F 6.02065 4.95327 12.865 0.105628 0.0474701 0.0113827
55 1 F 3.73206 5.97193 12.0034 0.0945619 -0.00266313 0.00919912
56 1 F 5.77734 7.3844 12.5102 0.473836 0.0781512 -0.335846
57 1 F 2.63109 4.9822 14.4947 -0.499528 0.152944 0.245673
58 1 F -0.0741077 4.99266 14.3217 0.0201109 0.0763846 0.183121
59 1 F -0.197456 5.8195 17.1348 0.747181 -0.281812 -0.753783
60 1 F 2.56071 5.82644 16.9965 -0.192558 0.108807 -0.0685112
61 1 F 8.33411 2.22329 12.0701 0.306114 -0.264833 -0.0769864
62 1 F 5.37711 6.32004 2.80035 0 0 0
63 1 F 9.66622 3.89454 10.7071 0.248149 1.45997 -0.0879626
64 1 F 2.44934 10.4206 9.93151 -0.187367 -0.135023 -0.198462
65 1 F 3.68446 0.570344 0.816065 0 0 0
66 1 F 9.51104 0.570344 0.816065 0 0 0
67 1 F 0.771166 5.61631 0.816065 0 0 0
68 1 F 6.59775 5.61631 0.816065 0 0 0
69 1 F 8.24259 2.13139 16.675 -0.0344027 0.422687 -0.0238088
70 1 F 7.54793 4.28448 15.2816 0.234627 0.901208 0.00329212
71 1 F 5.113 2.92018 14.6284 -0.144043 0.200758 0.0593496
72 1 F 6.12049 0.917092 16.1225 -0.420917 -0.143845 0.0103813
73 1 F 5.98847 3.30526 16.9483 0.00457171 -0.0216146 -0.0400773
74 1 F 10.323 7.77742 15.4783 -0.420051 0.276053 -0.170001
75 1 F 9.79602 10.4691 15.1654 -0.528511 -0.563445 -0.381255
76 1 F 7.75769 9.45694 13.2853 0.0161189 0.513369 -0.0844224
77 1 F 8.69365 7.09285 13.4712 0.358097 0.494198 0.473316
78 1 F 7.98122 8.5759 15.5095 0.074486 0.0751716 0.354807
79 1 F 5.17607 9.93647 10.1922 0.0880922 0.1087 -0.0383816
80 1 F 4.88634 10.1274 12.9143 -0.0584951 -0.111458 -0.307701
81 1 F 2.24008 10.0547 12.6158 0.299233 0.131407 -0.449075
82 1 F 3.49698 8.47489 11.2051 0.0381996 0.123913 -0.0338547
83 1 F 9.76035 9.95924 5.36901 -0.473039 -0.0960094 0.164826
84 2 H 1.49095 0.976464 5.0113 0.587712 0.0325977 -0.38384
85 2 H 0.468993 0.155398 5.99838 0.135662 -0.190709 -0.381978
86 2 H 7.23419 0.0157701 5.96228 0.198972 -0.333794 0.100679
87 2 H 2.95462 1.70702 8.4453 -0.0283365 -0.172774 0.0863575
88 2 H 9.51104 5.34279 1.36921 0 0 0
89 2 H 3.68446 5.34279 1.36921 0 0 0
90 2 H 6.59775 0.296822 1.36921 0 0 0
91 2 H 0.771166 0.296822 1.36921 0 0 0
92 2 H 8.67011 4.85728 0 0 0 0
93 2 H 2.84352 4.85728 0 0 0 0
94 2 H 11.5834 9.90325 0 0 0 0
95 2 H 5.75681 9.90325 0 0 0 0
96 2 H 6.59775 4.62811 3.30385 0 0 0
97 2 H 9.77912 2.07066 6.2441 -0.124649 -0.180887 0.404788
98 2 H 0.917944 7.14363 6.60916 -0.21251 0.0766719 -0.162018
99 2 H 3.51217 5.13051 6.17902 -0.143484 -0.0521396 0.00290898
100 2 H 5.95209 6.21569 7.8097 -0.563132 -0.646332 0.044472
101 2 H 3.91697 2.85069 7.63738 0.0296943 -0.0319189 0.248641
102 2 H 6.95282 1.31791 5.03441 0.293582 1.34821 -0.332618
103 2 H 4.73178 5.46567 5.12328 0.0403849 0.164758 -0.17506
104 2 H 10.178 6.06621 4.91797 0.17386 0.610454 -0.0180131
105 2 H 0.771166 4.62811 3.30385 0 0 0
106 2 H 9.51104 9.67408 3.30385 0 0 0
107 2 H 8.58867 5.57666 5.17283 -0.50116 0.267289 0.230316
108 2 H 6.59775 3.6608 1.93343 0 0 0
109 2 H 0.771166 3.6608 1.93343 0 0 0
110 2 H 1.6121 9.90325 0 0 0 0
111 2 H 9.51104 8.70677 1.93343 0 0 0
112 2 H 3.68446 8.70677 1.93343 0 0 0
113 2 H 10.352 4.85728 0 0 0 0
114 2 H 6.26586 7.68852 7.12374 -0.120862 0.044484 -0.109615
115 2 H 4.52539 4.85728 0 0 0 0
116 2 H 9.88887 4.8323 5.94829 0.168109 -0.298959 0.933819
117 2 H 2.84674 8.22312 3.30385 0 0 0
118 2 H 8.67333 8.22312 3.30385 0 0 0
119 2 H 5.76004 3.17715 3.30385 0 0 0
120 2 H 11.5866 3.17715 3.30385 0 0 0
121 2 H 4.654 1.43351 8.22645 -0.640829 0.226055 -0.119228
122 2 H 8.59951 1.53625 7.3984 0.564588 0.188796 -0.310524
123 2 H 10.2878 1.31784 7.66377 -0.255488 0.185943 -0.325595
124 2 H 1.23694 7.94727 8.0102 0.0233877 -0.360428 -0.0520002
125 2 H 7.47322 6.81661 7.8311 1.03997 -0.0417231 0.128073
126 2 H 3.68446 9.67408 3.30385 0 0 0
127 2 H 9.5954 2.83452 7.67985 0.139861 1.17533 0.426651
128 2 H 1.51575 6.22239 7.83221 -0.26068 0.542431 0.0932793
129 2 H 6.26625 7.56974 8.77209 0.0621229 -0.0529412 0.0228743
130 2 H 11.5942 6.83278 7.91403 -0.583575 0.0273948 0.05879
131 2 H 9.63943 4.59115 4.31477 -0.125214 0.521447 0.671347
132 2 H 3.60297 1.39175 6.94688 -0.147265 -0.295655 -0.22461
133 2 H 1.60888 3.17715 3.30385 0 0 0
134 2 H 10.3488 8.22312 3.30385 0 0 0
135 2 H 4.52217 8.22312 3.30385 0 0 0
136 2 H 7.0334 9.89101 4.30244 0.0742393 -0.0884359 -0.121336
137 2 H 1.07217 9.37424 4.69423 0.348054 0.625762 0.14043
138 2 H 3.52693 4.3824 4.69802 -0.127001 -0.156384 -0.231287
139 2 H 3.68446 6.31382 0 0 0 0
140 2 H 9.51104 6.31382 0 0 0 0
141 2 H 0.771166 1.26785 0 0 0 0
142 2 H 6.59775 1.26785 0 0 0 0
143 2 H 5.73073 0.210354 5.26673 0.0992732 0.103274 -0.114748
144 2 H 11.6194 0.511113 4.4622 0.261216 0.291697 -0.158292
145 2 H 3.15055 6.05138 4.83934 0.172191 -0.256484 -0.048016
146 2 H 7.43546 3.17715 3.30385 0 0 0
147 2 H 7.43869 9.90325 0 0 0 0
148 3 I 1.15718 5.23568 15.8121 -0.468144 0.403165 0.4271
149 3 I 6.81489 2.56519 15.4628 0.416696 -1.4038 -0.0251181
150 3 I 9.82048 2.05155 10.8253 -1.0685 -1.88479 0.230493
151 3 I 1.12866 1.34742 15.6721 -1.98705 -1.60327 0.406955
152 3 I 4.79907 6.25409 13.5828 0.153084 -0.558384 0.207292
153 3 I 9.28121 8.78203 14.2275 0.401819 -0.490297 -0.414046
154 3 I 3.71126 10.2997 11.4021 -0.18161 0.577178 0.81252
155 4 N 6.59775 3.6608 2.95976 0 0 0
156 4 N 6.59775 0.296822 0.342545 0 0 0
157 4 N 3.77341 1.84998 7.84602 0.744019 0.255956 -0.179857
158 4 N 9.5578 1.932 7.25167 -0.0793099 -1.24432 -0.077887
159 4 N 0.892976 7.04238 7.63123 0.923789 -0.430756 0.0573319
160 4 N 0.771166 3.6608 2.95976 0 0 0
161 4 N 6.49667 7.06604 7.90867 -0.322106 0.665913 -0.123425
162 4 N 0.793805 0.23289 5.01148 -1.01504 -0.570671 0.708336
163 4 N 0.771166 0.296822 0.342545 0 0 0
164 4 N 3.68446 8.70677 2.95976 0 0 0
165 4 N 9.51104 5.34279 0.342545 0 0 0
166 4 N 3.68446 5.34279 0.342545 0 0 0
167 4 N 6.75196 0.344491 5.11978 -0.953758 -1.26038 0.462477
168 4 N 9.51104 8.70677 2.95976 0 0 0
169 4 N 9.55857 5.28108 5.10943 0.171049 -0.998949 -1.84991
170 4 N 3.724 5.26044 5.18202 0.232473 0.32213 0.312182
171 5 Si 9.51104 1.97881 1.80169 0 0 0
172 5 Si 6.6508 3.70032 6.545 -0.155163 -0.0187381 -0.0263835
173 5 Si 0.853887 3.64363 6.37932 -0.11765 -0.780192 0.960041
174 5 Si 3.72146 8.62181 6.40775 -0.0199066 0.440968 0.413291
175 5 Si 6.59775 7.02478 1.80169 0 0 0
176 5 Si 0.771166 7.02478 1.80169 0 0 0
177 5 Si 3.68446 1.97881 1.80169 0 0 0
178 5 Si 9.60354 8.60441 6.44229 0.00115666 -0.331157 -0.236122
ITEM: TIMESTEP
200
ITEM: NUMBER OF ATOMS
178
ITEM: BOX BOUNDS pp pp ff
0.0000000000000000e+00 1.1653169955468799e+01
0.0000000000000000e+00 1.0091941216053600e+01
0.0000000000000000e+00 3.7118939999999995e+01
ITEM: ATOMS id type element xu yu zu fx fy fz
1 1 F 7.81752 7.72902 0.816065 0 0 0
2 1 F 6.79702 2.18958 7.58047 0.137897 0.411091 0.0750793
3 1 F 11.2046 7.72902 0.816065 0 0 0
4 1 F 5.37798 7.72902 0.816065 0 0 0
5 1 F 8.29127 2.68305 0.816065 0 0 0
6 1 F 2.46469 2.68305 0.816065 0 0 0
7 1 F 7.8184 6.32004 2.80035 0 0 0
8 1 F 1.99181 6.32004 2.80035 0 0 0
9 1 F 10.7317 1.27407 2.80035 0 0 0
10 1 F 4.9051 1.27407 2.80035 0 0 0
11 1 F 5.00405 7.85405 5.55114 0.133605 -0.165746 -0.194488
12 1 F 10.7736 7.88341 5.50901 -0.155708 -0.0232909 0.474116
13 1 F 2.19338 2.93783 5.39955 0.0555494 -0.180986 -0.0760283
14 1 F 7.74712 2.88691 5.47704 0.202224 0.132162 0.0973859
15 1 F 2.43169 9.1918 7.30674 -0.04144 -0.0580003 0.0014358
16 1 F 8.35691 9.45412 7.38842 -0.0273975 0.238477 -0.00587235
17 1 F 5.66057 4.38 7.79701 0.0783787 -0.247345 -0.319292
18 1 F 11.2454 4.20119 7.30431 0.371634 0.0511982 -0.16847
19 1 F 0.959992 2.12782 7.32553 0.157148 0.26937 -0.128099
20 1 F 2.46381 1.27407 2.80035 0 0 0
21 1 F 9.60771 7.42134 7.68062 0.332139 -0.105162 -0.110993
22 1 F 11.3863 2.81385 5.36574 0.140678 0.0792857 -0.0755989
23 1 F 6.58854 5.04162 5.60908 0.185712 0.0274193 0.206686
24 1 F 3.87044 9.99347 5.51603 -0.355149 -0.358737 -0.178974
25 1 F 8.06477 4.34641 7.43748 0.132463 -0.124606 0.0623688
26 1 F 2.04345 4.32898 7.45663 -0.181741 -0.197938 -0.351858
27 1 F 10.8123 9.54718 7.38228 0.0705558 -0.398627 -0.0156087
28 1 F 4.90864 9.27574 7.50091 -0.300294 -0.507009 0.163129
29 1 F 0.829014 7.05417 15.0172 0.146013 -0.256309 0.122755
30 1 F 1.99093 7.72902 0.816065 0 0 0
31 1 F 10.7308 2.68305 0.816065 0 0 0
32 1 F 4.90423 2.68305 0.816065 0 0 0
33 1 F 6.59775 8.43426 2.80035 0 0 0
34 1 F 0.771166 8.43426 2.80035 0 0 0
35 1 F 9.51104 3.38829 2.80035 0 0 0
36 1 F 3.68446 3.38829 2.80035 0 0 0
37 1 F 2.60062 7.87164 5.27217 -0.122412 0.101559 0.223035
38 1 F 8.3253 7.81636 5.64675 0.412336 0.289095 -0.0978861
39 1 F 5.3781 2.96999 5.75065 0.026649 0.189835 0.218562
40 1 F 3.61536 7.08253 7.37365 0.177784 0.18577 -0.0331091
41 1 F 0.910251 4.96567 5.38006 -0.0771223 0.192446 0.114929
42 1 F 8.2904 1.27407 2.80035 0 0 0
43 1 F 11.2037 6.32004 2.80035 0 0 0
44 1 F 9.76925 0.092254 11.5814 0.146097 0.720591 -0.264842
45 1 F 11.2007 1.72608 10.0542 0.45996 -0.00741889 -0.212008
46 1 F 10.8345 2.1831 12.5174 0.270312 0.118244 0.423308
47 1 F 2.11293 1.71589 14.3873 0.227506 0.25676 0.277933
48 1 F 1.35107 2.56791 16.7852 0.324268 0.598235 0.557957
49 1 F 0.349769 0.100176 17.4397 0.615933 0.457047 -0.714885
50 1 F 1.31522 -0.741658 14.8925 -0.186913 0.70035 0.346364
51 1 F 2.72346 0.389766 16.511 0.143996 0.371334 0.243205
52 1 F 3.8987 7.50812 14.1226 0.0231124 -0.29895 -0.257847
53 1 F 6.23938 6.67805 14.6842 0.454483 -0.118146 0.455151
54 1 F 6.30779 5.05169 12.4556 0.351685 -0.00435584 -0.134907
55 1 F 3.97832 6.05173 11.7789 -0.33918 -0.114302 -0.168447
56 1 F 5.77432 7.52583 12.4635 0.412134 0.207228 -0.303611
57 1 F 2.26146 5.12564 14.3381 0.421205 -0.016668 -0.240013
58 1 F -0.3436 4.91184 14.611 0.162115 -0.142043 0.0512329
59 1 F -0.361207 5.96666 16.989 0.449032 -0.148044 -0.288665
60 1 F 2.26034 6.3692 17.0199 -0.183828 -0.200118 -0.580034
61 1 F 8.24871 2.16645 12.474 0.259009 0.309187 -0.0630201
62 1 F 5.37711 6.32004 2.80035 0 0 0
63 1 F 9.9861 3.85473 10.8783 0.0931329 0.967174 0.0343725
64 1 F 2.54034 10.7957 9.82389 0.430773 0.2731 0.54719
65 1 F 3.68446 0.570344 0.816065 0 0 0
66 1 F 9.51104 0.570344 0.816065 0 0 0
67 1 F 0.771166 5.61631 0.816065 0 0 0
68 1 F 6.59775 5.61631 0.816065 0 0 0
69 1 F 8.33014 2.33356 16.4684 -0.0847946 -0.0327902 0.26085
70 1 F 7.48173 4.30657 15.0256 -0.148446 -0.455213 0.266622
71 1 F 5.20781 3.21756 14.4861 -0.0824434 -0.223376 0.0753879
72 1 F 5.87924 0.873177 15.7507 0.260601 0.25872 0.00432622
73 1 F 6.04612 3.08632 16.8663 -0.122121 0.264419 -0.103829
74 1 F 10.2772 8.4856 15.8062 -0.458866 0.366309 -0.435734
75 1 F 9.04644 10.6997 14.8778 -0.0546561 0.391314 0.430575
76 1 F 7.71966 9.32505 13.1136 0.156293 -0.150157 0.0481781
77 1 F 9.24024 7.08154 13.7928 -0.00646202 -0.651196 -0.367398
78 1 F 7.83671 8.3514 15.301 0.105126 0.551556 0.593736
79 1 F 5.15127 10.7897 10.3279 -0.0253341 0.0844545 0.127756
80 1 F 4.64875 10.0513 12.9166 0.0105156 0.324143 0.138564
81 1 F 1.88713 10.2424 12.2886 0.841655 0.100107 -0.357702
82 1 F 3.61749 8.92982 11.0318 0.00211107 -0.109701 -0.154368
83 1 F 9.60397 9.96506 5.35221 -0.206667 -0.100831 0.200328
84 2 H 1.48763 1.07745 5.10931 0.320546 -0.175583 -0.340232
85 2 H 0.62335 0.1427 6.16006 0.126271 -0.230205 -0.598555
86 2 H 7.03447 -0.0975069 6.03647 0.0492041 0.00662235 -0.117014
87 2 H 2.73226 1.88552 7.61404 0.28692 0.00829837 0.0189185
88 2 H 9.51104 5.34279 1.36921 0 0 0
89 2 H 3.68446 5.34279 1.36921 0 0 0
90 2 H 6.59775 0.296822 1.36921 0 0 0
91 2 H 0.771166 0.296822 1.36921 0 0 0
92 2 H 8.67011 4.85728 0 0 0 0
93 2 H 2.84352 4.85728 0 0 0 0
94 2 H 11.5834 9.90325 0 0 0 0
95 2 H 5.75681 9.90325 0 0 0 0
96 2 H 6.59775 4.62811 3.30385 0 0 0
97 2 H 9.64999 2.03804 6.51814 -0.146349 0.0456734 0.0662154
98 2 H 0.898935 6.63561 6.62206 -0.21638 0.0525666 -0.167423
99 2 H 3.85112 5.01513 5.91775 -0.0135758 -0.189834 0.0650662
100 2 H 6.14523 6.36125 8.41938 -0.326169 -0.500214 0.244651
101 2 H 4.15878 2.43512 8.3544 -0.0604765 -0.293376 0.0939786
102 2 H 6.75486 1.20589 5.02509 0.0354056 -0.236236 -0.0796732
103 2 H 4.64479 5.74889 4.66711 0.0424422 0.0250504 -0.0561815
104 2 H 10.0774 6.00073 4.823 0.431639 0.574712 0.0517059
105 2 H 0.771166 4.62811 3.30385 0 0 0
106 2 H 9.51104 9.67408 3.30385 0 0 0
107 2 H 8.50572 5.63685 5.20024 -0.258752 0.00519553 0.249584
108 2 H 6.59775 3.6608 1.93343 0 0 0
109 2 H 0.771166 3.6608 1.93343 0 0 0
110 2 H 1.6121 9.90325 0 0 0 0
111 2 H 9.51104 8.70677 1.93343 0 0 0
112 2 H 3.68446 8.70677 1.93343 0 0 0
113 2 H 10.352 4.85728 0 0 0 0
114 2 H 6.58668 6.85789 6.90398 0.151881 -0.0489148 0.516164
115 2 H 4.52539 4.85728 0 0 0 0
116 2 H 9.78885 4.85796 5.99004 0.183117 -0.267448 0.818684
117 2 H 2.84674 8.22312 3.30385 0 0 0
118 2 H 8.67333 8.22312 3.30385 0 0 0
119 2 H 5.76004 3.17715 3.30385 0 0 0
120 2 H 11.5866 3.17715 3.30385 0 0 0
121 2 H 4.10123 0.885983 7.66226 0.213504 -0.190512 0.23439
122 2 H 8.70002 1.86911 7.90039 0.0876829 -0.0516685 -0.411432
123 2 H 10.1953 1.0184 7.71166 -0.202459 0.342803 -0.0548046
124 2 H 1.123 7.78199 7.80982 0.0183833 -0.618383 0.0579191
125 2 H 7.64723 7.0679 8.17045 0.764745 0.159479 0.117654
126 2 H 3.68446 9.67408 3.30385 0 0 0
127 2 H 10.1496 2.7068 7.91728 0.799442 1.08083 0.363165
128 2 H 1.32716 6.03388 8.06352 -0.250971 0.683312 -0.121599
129 2 H 6.21147 8.01907 8.02255 0.269834 -0.410167 0.14537
130 2 H 11.4284 6.72233 7.8418 -0.500422 0.0831012 0.0475999
131 2 H 9.47987 4.53518 4.37392 -0.115753 0.194243 0.477926
132 2 H 4.1705 2.29343 6.7291 -0.177237 -0.297667 0.185831
133 2 H 1.60888 3.17715 3.30385 0 0 0
134 2 H 10.3488 8.22312 3.30385 0 0 0
135 2 H 4.52217 8.22312 3.30385 0 0 0
136 2 H 6.81454 9.69013 4.39727 0.318435 0.0953509 -0.182189
137 2 H 1.40096 9.43699 4.86139 0.0441603 0.496358 0.30685
138 2 H 3.54782 4.50985 4.33033 0.0276068 0.0499289 0.121998
139 2 H 3.68446 6.31382 0 0 0 0
140 2 H 9.51104 6.31382 0 0 0 0
141 2 H 0.771166 1.26785 0 0 0 0
142 2 H 6.59775 1.26785 0 0 0 0
143 2 H 5.52165 0.0429466 5.29869 0.0280159 0.380924 0.131249
144 2 H 11.7313 0.330175 4.5902 -0.0493237 0.194994 0.0104858
145 2 H 3.01932 6.02558 4.91246 -0.138003 0.0676992 -0.167794
146 2 H 7.43546 3.17715 3.30385 0 0 0
147 2 H 7.43869 9.90325 0 0 0 0
148 3 I 1.0657 5.40944 15.8137 -0.872307 0.225881 0.902883
149 3 I 6.83352 2.49816 15.2919 0.0903563 0.303459 -0.252304
150 3 I 9.66026 2.02587 11.1172 -1.1655 -1.9596 0.0553404
151 3 I 1.10568 0.933134 15.8248 -1.00243 -1.85954 -0.511977
152 3 I 5.02427 6.11977 13.3778 -1.22305 -0.060321 0.126604
153 3 I 9.22394 8.91112 14.2312 0.41583 -0.545859 -0.338848
154 3 I 3.59998 10.7231 11.4777 -1.42238 -0.454329 -0.376595
155 4 N 6.59775 3.6608 2.95976 0 0 0
156 4 N 6.59775 0.296822 0.342545 0 0 0
157 4 N 3.7752 1.85574 7.59949 -0.0834637 0.730611 -0.251173
158 4 N 9.67364 1.91459 7.54039 -0.636753 -1.35468 -0.222614
159 4 N 0.767715 6.81237 7.62741 0.997261 -0.11655 0.0884493
160 4 N 0.771166 3.6608 2.95976 0 0 0
161 4 N 6.66638 7.07657 7.92432 -0.940266 0.730526 -1.14617
162 4 N 0.924741 0.21875 5.16179 -0.522839 -0.285675 0.486027
163 4 N 0.771166 0.296822 0.342545 0 0 0
164 4 N 3.68446 8.70677 2.95976 0 0 0
165 4 N 9.51104 5.34279 0.342545 0 0 0
166 4 N 3.68446 5.34279 0.342545 0 0 0
167 4 N 6.54544 0.204442 5.17657 -0.177516 -0.0599482 0.275589
168 4 N 9.51104 8.70677 2.95976 0 0 0
169 4 N 9.45448 5.26048 5.12764 -0.0490845 -0.547313 -1.6538
170 4 N 3.75732 5.31342 4.94335 0.179626 -0.00726938 0.176084
171 5 Si 9.51104 1.97881 1.80169 0 0 0
172 5 Si 6.73798 3.64959 6.6777 -0.71927 -0.244173 -0.452891
173 5 Si 0.940858 3.56115 6.36265 -0.804751 0.127766 0.865574
174 5 Si 3.72436 8.50141 6.45938 0.236038 0.416447 0.220717
175 5 Si 6.59775 7.02478 1.80169 0 0 0
176 5 Si 0.771166 7.02478 1.80169 0 0 0
177 5 Si 3.68446 1.97881 1.80169 0 0 0
178 5 Si 9.59193 8.67276 6.50207 -0.449535 -0.0554538 -0.388409
ITEM: TIMESTEP
300
ITEM: NUMBER OF ATOMS
178
ITEM: BOX BOUNDS pp pp ff
0.0000000000000000e+00 1.1653169955468799e+01
0.0000000000000000e+00 1.0091941216053600e+01
0.0000000000000000e+00 3.7118939999999995e+01
ITEM: ATOMS id type element xu yu zu fx fy fz
1 1 F 7.81752 7.72902 0.816065 0 0 0
2 1 F 6.8746 2.14564 7.45647 0.167516 0.137567 0.38039
3 1 F 11.2046 7.72902 0.816065 0 0 0
4 1 F 5.37798 7.72902 0.816065 0 0 0
5 1 F 8.29127 2.68305 0.816065 0 0 0
6 1 F 2.46469 2.68305 0.816065 0 0 0
7 1 F 7.8184 6.32004 2.80035 0 0 0
8 1 F 1.99181 6.32004 2.80035 0 0 0
9 1 F 10.7317 1.27407 2.80035 0 0 0
10 1 F 4.9051 1.27407 2.80035 0 0 0
11 1 F 4.94443 7.91375 5.47808 0.11917 -0.0958046 -0.048729
12 1 F 10.6872 7.97485 5.56271 0.27195 -0.360548 -0.0297165
13 1 F 2.01022 3.02268 5.27248 0.37478 -0.366158 0.010666
14 1 F 7.83461 2.89281 5.41016 0.590155 -0.340106 -0.318504
15 1 F 2.48027 8.95993 7.56679 -0.123421 0.232323 0.13463
16 1 F 8.31251 9.39593 7.55292 -0.10175 0.321052 -0.0777884
17 1 F 5.80805 4.37554 7.72285 -0.399668 -0.339856 0.0122074
18 1 F 11.3907 4.1534 7.60395 0.210707 -0.173827 -0.364615
19 1 F 1.14036 2.12872 7.33752 -0.0398735 0.29526 -0.198521
20 1 F 2.46381 1.27407 2.80035 0 0 0
21 1 F 9.58129 7.36472 7.64392 0.12602 -0.181561 -0.00440108
22 1 F 11.239 2.83277 5.55026 0.0610567 -0.154187 -0.210125
23 1 F 6.71827 4.95772 5.5346 -0.0695519 0.485139 -0.0743877
24 1 F 3.68499 9.97372 5.72327 -0.128057 -0.0306411 -0.317642
25 1 F 8.11809 4.28495 7.41775 0.755297 0.0816468 -0.0368686
26 1 F 2.10421 4.43942 7.26771 0.0360788 -0.270208 0.155816
27 1 F 10.7588 9.52634 7.44368 0.258244 -0.267211 0.159667