LAMMPS data file via write_data, version 2 Aug 2023, timestep = 1000, units = metal

178 atoms
5 atom types

0 11.6531699554688 xlo xhi
0 10.0919412160536 ylo yhi
0 37.118939999999995 zlo zhi

Masses

1 18.998403163
2 1.008
3 126.90447
4 14.007
5 28.085

Atoms # atomic

6 1 2.464689 2.6830460000000005 0.8160649999999998 0 0 0
20 1 2.463813 1.274072 2.800346 0 0 0
36 1 3.6844579999999993 3.388292 2.800346 0 0 0
65 1 3.6844579999999993 0.570344 0.8160649999999998 0 0 0
91 2 0.771166 0.296822 1.3692119999999999 0 0 0
93 2 2.843523 4.857278 0 0 0 0
105 2 0.771166 4.628112 3.3038509999999994 0 0 0
109 2 0.771166 3.660802 1.93343 0 0 0
133 2 1.60888 3.177147 3.3038509999999994 0 0 0
141 2 0.771166 1.26785 0 0 0 0
160 4 0.771166 3.660802 2.959756 0 0 0
163 4 0.771166 0.296822 0.342545 0 0 0
177 5 3.6844579999999993 1.978812 1.801686 0 0 0
10 1 4.905104 1.274072 2.800346 0 0 0
32 1 4.904228 2.6830460000000005 0.8160649999999998 0 0 0
90 2 6.597750999999999 0.296822 1.3692119999999999 0 0 0
96 2 6.597750999999999 4.628112 3.3038509999999994 0 0 0
108 2 6.597750999999999 3.660802 1.93343 0 0 0
115 2 4.525393 4.857278 0 0 0 0
119 2 5.760036 3.177147 3.3038509999999994 0 0 0
142 2 6.597750999999999 1.26785 0 0 0 0
146 2 7.435464999999999 3.177147 3.3038509999999994 0 0 0
155 4 6.597750999999999 3.660802 2.959756 0 0 0
156 4 6.597750999999999 0.296822 0.342545 0 0 0
5 1 8.291273999999998 2.6830460000000005 0.8160649999999998 0 0 0
9 1 10.731689 1.274072 2.800346 0 0 0
31 1 10.730812999999998 2.6830460000000005 0.8160649999999998 0 0 0
35 1 9.511043 3.388292 2.800346 0 0 0
42 1 8.290398 1.274072 2.800346 0 0 0
66 1 9.511043 0.570344 0.8160649999999998 0 0 0
92 2 8.670108 4.857278 0 0 0 0
113 2 10.351978 4.857278 0 0 0 0
120 2 11.586621 3.177147 3.3038509999999994 0 0 0
171 5 9.511043 1.978812 1.801686 0 0 0
8 1 1.991811 6.320043 2.800346 0 0 0
30 1 1.990935 7.729017 0.8160649999999998 0 0 0
34 1 0.771166 8.434263 2.800346 0 0 0
67 1 0.771166 5.616314 0.8160649999999998 0 0 0
89 2 3.6844579999999993 5.342792000000001 1.3692119999999999 0 0 0
110 2 1.612101 9.903249 0 0 0 0
112 2 3.6844579999999993 8.706773 1.93343 0 0 0
117 2 2.846743 8.223118 3.3038509999999994 0 0 0
126 2 3.6844579999999993 9.674083 3.3038509999999994 0 0 0
139 2 3.6844579999999993 6.313821000000001 0 0 0 0
164 4 3.6844579999999993 8.706773 2.959756 0 0 0
166 4 3.6844579999999993 5.342792000000001 0.342545 0 0 0
176 5 0.771166 7.024783000000001 1.801686 0 0 0
4 1 5.377981 7.729017 0.8160649999999998 0 0 0
33 1 6.597750999999999 8.434263 2.800346 0 0 0
62 1 5.377105 6.320043 2.800346 0 0 0
68 1 6.597750999999999 5.616314 0.8160649999999998 0 0 0
95 2 5.756815 9.903249 0 0 0 0
135 2 4.522173 8.223118 3.3038509999999994 0 0 0
147 2 7.438686 9.903249 0 0 0 0
175 5 6.597750999999999 7.024783000000001 1.801686 0 0 0
1 1 7.81752 7.729017 0.8160649999999998 0 0 0
3 1 11.204566 7.729017 0.8160649999999998 0 0 0
7 1 7.818396 6.320043 2.800346 0 0 0
43 1 11.20369 6.320043 2.800346 0 0 0
88 2 9.511043 5.342792000000001 1.3692119999999999 0 0 0
94 2 11.5834 9.903249 0 0 0 0
106 2 9.511043 9.674083 3.3038509999999994 0 0 0
111 2 9.511043 8.706773 1.93343 0 0 0
118 2 8.673328 8.223118 3.3038509999999994 0 0 0
134 2 10.348758 8.223118 3.3038509999999994 0 0 0
140 2 9.511043 6.313821000000001 0 0 0 0
165 4 9.511043 5.342792000000001 0.342545 0 0 0
168 4 9.511043 8.706773 2.959756 0 0 0
13 1 1.9992570201741817 3.029617322039027 5.5508716928093405 0 0 0
19 1 0.6807222539141032 2.245821703940796 7.393018145143789 0 0 0
24 1 3.6605823730280393 0.24856191673131725 5.418892287309601 0 1 0
26 1 1.850242963812128 4.432186425298887 7.579554142643845 0 0 0
84 2 1.5711052924949798 0.6377394004162423 4.526420770728946 0 0 0
85 2 0.9263725301583022 0.5748011227185051 6.111645762682261 0 0 0
132 2 4.156156886978726 1.2499323829093683 7.682024498225485 0 0 0
138 2 3.141179900292709 4.680100391178025 5.357876741894128 0 0 0
162 4 0.7718305139377903 0.3900633667380802 5.0885355829870775 0 0 0
173 5 0.6995563204433398 3.6839520488100552 6.510628096887728 0 0 0
2 1 6.740608764932008 2.2761181121388256 7.302446548586001 0 0 0
17 1 5.639345751836515 4.449528038649986 7.450837589241015 0 0 0
39 1 5.48918789710515 3.1442463738357254 5.432454126454286 0 0 0
86 2 7.074908439248239 0.13794259624323668 5.973641979393815 0 0 0
102 2 7.4399554753842985 0.8149564810990455 4.480692114787258 0 0 0
143 2 5.849950381246688 0.9533941712756204 5.157683855767434 0 0 0
167 4 6.694173271656864 0.3562001893865262 5.038938169220089 0 0 0
172 5 6.798808802531071 3.736351926510159 6.455162791751826 0 0 0
14 1 7.941709898445073 3.011818970532033 5.354873915766995 0 0 0
18 1 11.048753770561703 4.317263422682326 7.395981499264309 0 0 0
22 1 11.172469050874245 3.0466689330052708 5.37134372956482 0 0 0
25 1 8.049254566138798 4.422804762519348 7.386830716528507 0 0 0
83 1 9.60451247509588 10.057607869496191 5.476028135298814 0 0 0
97 2 9.923415449037584 2.1354776469643513 6.563617835686023 0 0 0
131 2 9.643975612476293 4.439563475898072 4.417702547295586 0 0 0
144 2 11.589242911003916 0.8897422051753192 4.772025196157385 0 0 0
15 1 2.2525067741877147 9.568625817024929 7.290065785777602 0 0 0
37 1 2.498938919881253 8.182825931264539 5.344073316544603 0 0 0
40 1 3.4949746152404915 7.446778119241212 7.325319407294149 0 0 0
41 1 0.7835959915861471 5.091830223947872 5.5295207593308415 0 0 0
98 2 0.8028072254848726 7.414430717062593 6.819977427059454 0 0 0
99 2 3.4894317511889037 6.164852967777442 6.022334530661422 0 0 0
137 2 0.6166036836695891 9.453284975632972 5.004381051637066 0 0 0
145 2 3.374912383472665 5.945512617532011 4.344147943324783 0 0 0
170 4 3.6965171218221125 5.542840367704012 5.220654575108173 0 0 0
174 5 3.586785069634983 8.92329119916294 6.46777558571022 0 0 0
11 1 4.925001069799984 8.247573163249324 5.597603513940024 0 0 0
23 1 6.78268126195573 5.173835925770742 5.399057716567751 0 0 0
28 1 4.623012247794418 9.657201035266585 7.614545718199418 0 0 0
103 2 4.7102728785579115 5.370190466915915 5.198738059644312 0 0 0
114 2 6.587076544238647 6.536575096294803 6.5587967307235475 0 0 0
136 2 6.472340484254889 9.53975527444282 4.599350456041997 0 0 0
12 1 10.988621601224045 7.9834582091176065 5.559335030618525 0 0 0
16 1 8.102434256086628 9.28991672620438 7.211562206822526 0 0 0
21 1 9.55529560798253 7.359534496554486 7.485925016382085 0 0 0
27 1 10.611027695503967 9.461581302018457 7.514266623661045 0 0 0
38 1 8.555461745421807 7.834020852265814 5.306197314192096 0 0 0
104 2 10.41322640823053 5.848296910317946 4.909196278301062 0 0 0
107 2 8.75683237988053 5.775365774251425 4.790247039479336 0 0 0
116 2 9.478116698800726 4.929262181312286 6.01951350335404 0 0 0
169 4 9.587553733658746 5.262927646212114 5.043245474514476 0 0 0
178 5 9.583531637546624 8.642794064997252 6.405922136491755 0 0 0
45 1 9.850661256495947 2.220446023367978 10.276831360258663 0 0 0
87 2 3.3386226317098138 2.2722658377356724 6.657759627274937 0 0 0
101 2 4.433154474218671 2.92779485170607 7.715803243433539 0 0 0
157 4 3.7297593512254976 2.1712789134606765 7.607775859866756 0 0 0
121 2 2.9662435689162674 2.3036188445516284 8.31051387400243 0 0 0
63 1 10.035332646655542 4.4338411374297655 11.941283707320169 0 0 0
122 2 8.583796196115566 1.7154503930074079 7.451757951975365 0 0 0
123 2 10.095697647509132 0.9206742275396379 7.742499714575767 0 0 0
127 2 9.816545183623806 2.570491781916598 8.145245181917153 0 0 0
150 3 8.80159984977682 2.895501556140312 11.766713169459765 0 0 0
158 4 9.597714892779583 1.822629766334378 7.492932645774819 0 0 0
64 1 2.4849450878303645 2.612639083709786 10.113902254170625 0 1 0
124 2 1.5029959595021314 7.655601786270499 8.313906280630823 0 0 0
128 2 1.176179060011203 6.048870804598284 7.769136984177323 0 0 0
159 4 0.8282764911713091 7.035080031122166 7.780558175472288 0 0 0
79 1 4.375560573626269 2.805028183918007 11.836388424838841 0 1 0
100 2 7.0755931915492924 6.492790662547151 8.170200241938993 0 0 0
125 2 6.981009747304064 7.9830557696409015 7.3437576420855555 0 0 0
129 2 5.602897615931636 7.115513577912733 7.809746176014117 0 0 0
161 4 6.554796313684564 7.036163120838458 7.471017263799612 0 0 0
130 2 11.503992016383883 7.098059617345395 8.094509430895478 0 0 0
47 1 1.2317417695430244 0.06810120442841132 14.661008463439188 0 0 0
50 1 2.8437439218943137 8.73280751906107 16.184281662808278 0 -1 0
57 1 0.9410656307958724 3.574678601639749 13.37185814511193 0 0 0
154 3 2.8223550031118134 1.6088548265417344 11.761413505483814 0 1 0
54 1 6.273480595147822 5.289108950668997 10.346374119645464 0 0 0
71 1 5.5425055833891514 4.763459927849708 14.94883659164217 0 0 0
44 1 7.937618339455198 1.2233938230092054 11.814514398996545 0 0 0
46 1 10.178573458503015 2.0822303631687054 12.718383884963634 0 0 0
61 1 8.03984343854842 3.297704378453597 13.50102315146321 0 0 0
52 1 2.8459942201181843 6.737664395999445 11.046318741398512 0 0 0
55 1 3.863189958380251 4.740787849389946 9.689588520743188 0 0 0
81 1 1.5393826684754073 0.28869654425061303 11.287833976831916 0 1 0
82 1 3.940060552918731 0.645770516713683 10.621008230409844 0 1 0
56 1 4.713031945169497 7.099450446808203 9.557518094991211 0 0 0
80 1 3.498162656151462 0.31941112996592175 13.019389833105816 0 1 0
152 3 4.590110303713096 5.90049314399728 11.019442898284034 0 0 0
58 1 10.531136021239071 4.495449789915417 14.927019669481506 -1 0 0
76 1 7.8035120920905925 9.15183253448841 13.893126932315637 0 0 0
77 1 10.286057301752383 8.023704232615188 14.328271657652405 0 0 0
153 3 9.115149863700674 9.201658199115066 15.266652451919988 0 0 0
48 1 0.26818795425421366 1.47102744278193 16.87225014274712 0 0 0
49 1 1.7722341686483158 10.022761615732273 18.48075935788256 0 -1 0
51 1 2.7321140319243225 1.148695858018609 16.33361545151445 0 0 0
151 3 1.4005093910455215 9.945892345650693 16.599426367622634 0 -1 0
70 1 7.087328855421521 4.981382573737057 17.070845422501485 0 0 0
72 1 5.187386462543849 2.1619606529977697 15.380645665975724 0 0 0
73 1 4.89127686310442 3.78158133294551 17.24742602547446 0 0 0
149 3 6.377457313200505 3.468867180930593 16.16691217565691 0 0 0
69 1 6.858641196720479 2.3118815052392714 17.629757501961823 0 0 0
29 1 1.1034789302154029 5.775476143980079 14.68979697149645 0 0 0
59 1 0.5082272566376057 4.865166790761191 16.93809781643852 0 0 0
60 1 2.637599340821508 4.000606539904298 15.475313278750683 0 0 0
148 3 0.7074478120054303 4.019461696862727 15.267584958448507 0 0 0
53 1 5.555094604024615 7.300354151155061 11.915769711312787 0 0 0
74 1 10.209093339677354 8.722694459903213 16.84773616844224 0 0 0
75 1 7.855650047494744 9.96713165699618 16.50034237849998 0 0 0
78 1 8.30409222051071 7.6294276551453555 15.771778709986942 0 0 0

Velocities

6 0 0 0
20 0 0 0
36 0 0 0
65 0 0 0
91 0 0 0
93 0 0 0
105 0 0 0
109 0 0 0
133 0 0 0
141 0 0 0
160 0 0 0
163 0 0 0
177 0 0 0
10 0 0 0
32 0 0 0
90 0 0 0
96 0 0 0
108 0 0 0
115 0 0 0
119 0 0 0
142 0 0 0
146 0 0 0
155 0 0 0
156 0 0 0
5 0 0 0
9 0 0 0
31 0 0 0
35 0 0 0
42 0 0 0
66 0 0 0
92 0 0 0
113 0 0 0
120 0 0 0
171 0 0 0
8 0 0 0
30 0 0 0
34 0 0 0
67 0 0 0
89 0 0 0
110 0 0 0
112 0 0 0
117 0 0 0
126 0 0 0
139 0 0 0
164 0 0 0
166 0 0 0
176 0 0 0
4 0 0 0
33 0 0 0
62 0 0 0
68 0 0 0
95 0 0 0
135 0 0 0
147 0 0 0
175 0 0 0
1 0 0 0
3 0 0 0
7 0 0 0
43 0 0 0
88 0 0 0
94 0 0 0
106 0 0 0
111 0 0 0
118 0 0 0
134 0 0 0
140 0 0 0
165 0 0 0
168 0 0 0
13 1.1531125530866901 1.948485161306893 1.4411164226114321
19 -2.6194406350426047 -2.086133126584672 -1.6050354856875628
24 2.866535501849508 -0.8367136221449829 -0.6977791678373453
26 -0.2883802608133879 0.5664765172118363 2.6160653195317507
84 -12.614518953711519 -2.7834479293732928 -4.455541311931191
85 -2.6321473034809357 -12.418548338459983 0.9411797746808587
132 7.77142157271352 8.132221541980982 -2.473933986143819
138 10.854169413862676 -6.465137821292071 -8.340087306313773
162 -2.3903671722540443 0.20689491307769795 -1.4821790992866082
173 2.8425714531366086 1.2932641172910357 -0.2578065022012525
2 3.038013176319657 1.5699535455937688 -4.089445504293695
17 2.5959518690924237 -4.168579649397891 5.082225863344006
39 0.4840973312868312 1.8319935041801245 -3.1711621539064807
86 -1.5203427170761752 4.631288210084668 8.671614457047673
102 -8.692817467941346 -2.74092590562929 0.2870154867696103
143 -2.5903123868873057 10.427292715712172 6.218457662416411
167 1.618412744780494 2.560918967082188 -4.188253734804354
172 -0.5980991832345764 -0.356634103727523 0.7451339711474463
14 -0.7233439354721393 -1.2342065503963826 -0.8832028418526989
18 0.24826272266796268 -1.4119895904138842 0.3003792701064667
22 2.0388769810162692 0.4778270594906627 -1.0333485858189044
25 -1.627064645833035 -0.7492409726217845 -2.3731444643585244
83 3.4904680615895947 0.7407060184510608 3.3295790530384415
97 -9.080919409564977 1.767190989745808 6.45668139793324
131 4.436333853469663 19.415220965339554 -1.1110229113356107
144 -5.62470640182866 -3.9314926036932065 3.841383010258793
15 1.6970094889433378 -2.4062808363018098 0.504309091057502
37 1.8065014084346707 -1.846532947532627 -1.4275044407054185
40 -2.6646555776926144 1.0100090576366774 -0.5994789378237154
41 0.7668940656108796 2.252531894153546 1.84148369645339
98 -1.9086701028153366 2.820277945037424 2.135756530989348
99 0.7986204943632534 1.2458811584383758 -1.2376471485273084
137 -6.471186540001544 -0.7564863038280644 -2.588307732971522
145 -9.201662473438597 1.3458526794308792 6.075497801633271
170 0.3365793345304007 1.2801340432267136 1.122824837610117
174 1.7109196035826986 -0.7130955758487497 -1.8454310806462333
11 -0.9360044309409932 -2.3076156113531616 2.415777116062904
23 1.8051419310229324 4.245828086968607 2.315491207173466
28 3.059945227647628 0.856096555996498 -2.837561930602852
103 -0.46335352473908503 11.238845645718445 -0.08184967674992466
114 11.627713918745178 3.718867232924357 9.791883052197772
136 -3.424621496907884 -2.6455495008675594 -1.331750798333606
12 -0.5824323962621275 3.3484066247537796 -2.39776310326488
16 3.71761795327978 -2.7912495922840836 1.642650437466188
21 -3.21327135711671 -1.759412203453262 -2.7566331498421075
27 0.8568122511888472 -2.492527681571546 3.0982852210182346
38 -0.5401313162973137 1.202457161814677 0.1802959650886187
104 -2.8323404698857177 -0.4042075944974228 0.19706223500982936
107 1.746221352860094 12.12968576308627 12.792746445032998
116 13.070080914735263 3.204084803711158 -6.394231836457665
169 3.3168310674430854 3.135911040329671 -0.2184191607802357
178 -2.526757915016202 0.5741948583844717 -0.3018714036425241
45 -2.9447437349678425 6.4415028075196545 -4.584144782052001
87 -7.8048095268990965 0.2272463788838083 -9.465757669173723
101 -16.94906029154833 -5.604406068232658 14.34331646945006
157 -5.124341935752755 -0.497042136780745 0.8387355047534564
121 -8.823938967225958 -19.87041634333685 -3.2197164149033806
63 -3.054688896244565 1.9550202169581863 7.281598382389456
122 -7.631546751231952 1.7403060910371182 -2.096512430133122
123 -7.865759943102722 -9.0864895861299 -4.928722997110252
127 -2.1566283165977067 -1.7730750852071928 2.0715876507388846
150 -1.745618410158341 3.28616206466881 1.0589311802945491
158 -2.066672061940649 -0.17994659344147396 0.6417049093690909
64 -5.518065884559088 -4.363698167402553 -2.4400795057763296
124 5.516787719687171 -8.781258626937445 16.28421929590087
128 -14.712236167925212 -7.165985315801974 -9.693298354586943
159 0.9174439481689698 -0.07777674433120466 -0.22222409174337585
79 -1.1392122200345263 2.429714459109056 -3.1381765835417412
100 4.590466981903935 3.396018547249529 3.1149096921743125
125 -12.474017991905566 -6.071418394311393 -6.664223079507437
129 7.894523580118806 3.669518474877256 1.767597600696197
161 5.68998953019434 1.611530474587127 1.3112098374248187
130 -7.060146285986567 -1.0579619543609655 3.0237647707019577
47 0.3074325833805551 -3.049379997427706 -4.14782013225814
50 0.8949091567301395 0.43783551275639976 -2.106228641432681
57 -5.512337952613367 -4.689847947932583 0.6220639267251123
154 0.36875266225470693 -0.5399026915359277 -0.659630621092818
54 -0.9848287741346966 1.3987007244912968 2.0555697464515483
71 -3.837616909687111 3.6456884160794343 2.707961064065743
44 -6.763972265373172 3.828170378358465 -1.4242705258722144
46 -0.03902017103455284 -3.895281997074382 -0.9227952250015209
61 -1.19359108373076 -1.4228067929016526 0.6287461265924559
52 -4.726246976405801 -0.929467149859827 -3.768299631056991
55 -0.5450321921808445 2.9755925982909717 3.5791647871585495
81 0.22885318086012618 0.2105734542503075 0.40197237234066646
82 4.968641545573563 0.15374540224759742 1.8808805922124168
56 -1.1931938072430641 -1.051100370415327 -1.4442472519792897
80 1.5550267970728617 0.8223508513207707 -1.8835250497754603
152 -0.945008944156575 -1.406977494484118 1.0151800205411403
58 4.666373674937556 4.496656132257419 1.6329849343745932
76 2.7989066300035566 -5.925014456152455 -3.3478860777590453
77 2.911128775633237 5.820166145992605 3.8647892928951744
153 -0.6463022522282664 -0.5754836034149982 2.202015685808986
48 0.27744409366091244 -2.918436035126393 -3.1183521829991605
49 -5.333488379305097 -3.6115016970794036 -0.8371924359234686
51 -4.960885409105243 -1.4216280437676116 11.204329351008175
151 -0.8116027846480101 -3.293933068724028 0.7896549583748299
70 -1.745200024466974 7.477284323858408 1.0247137388536522
72 0.5450053399227864 3.725941477738128 -4.71296365199899
73 -1.8975910664604598 1.2165828957199627 2.8459489268123948
149 -1.386549086107192 2.8452422875376397 1.9536092728464924
69 0.2381493417415184 -1.2494133759642079 -1.480695086034052
29 6.700141094131625 -2.175717607664925 -4.990684520203394
59 0.3232845753510169 2.5190456140599724 0.9585242068220599
60 5.0422432257485985 -4.621424565361152 -6.03195000516674
148 -1.334689914898727 -0.4083345064908169 0.10321512689733192
53 5.089042749549407 2.6670585147960066 -0.3120270249242332
74 2.7041689854721955 4.2098482980023695 0.12727440805327406
75 -1.2414540289067617 -6.93215455514269 1.1562449212705888
78 1.4778804720049135 -0.463993499005169 7.000198856127601
