(written by ASE)

178 atoms
5 atom types

0.0      11.653169955468799  xlo xhi
0.0        10.0919412160536  ylo yhi
0.0      37.118939999999995  zlo zhi

Atoms # atomic

     1   1                 7.81752      7.7290169999999998     0.81606499999999982
     2   1      6.5967769999999994                2.252672                7.401224
     3   1               11.204566      7.7290169999999998     0.81606499999999982
     4   1      5.3779810000000001      7.7290169999999998     0.81606499999999982
     5   1      8.2912739999999978      2.6830460000000005     0.81606499999999982
     6   1      2.4646889999999999      2.6830460000000005     0.81606499999999982
     7   1      7.8183959999999999      6.3200430000000001      2.8003459999999998
     8   1                1.991811      6.3200430000000001      2.8003459999999998
     9   1      10.731688999999999      1.2740720000000001      2.8003459999999998
    10   1      4.9051039999999997      1.2740720000000001      2.8003459999999998
    11   1      4.9054539999999998      8.0007190000000001      5.4168610000000008
    12   1      10.732037999999999      8.0007190000000001      5.4168610000000008
    13   1      1.9921610000000001      2.9547490000000001      5.4168610000000008
    14   1      7.8187459999999991      2.9547490000000001      5.4168610000000008
    15   1                2.465468      9.4116809999999997      7.4012250000000002
    16   1      8.2920529999999992      9.4116820000000008      7.4012250000000002
    17   1      5.3787609999999999      4.3657110000000001                7.401224
    18   1      11.205344999999999      4.3657110000000001                7.401224
    19   1     0.77019199999999999                2.252672                7.401224
    20   1                2.463813      1.2740720000000001      2.8003459999999998
    21   1      9.5100689999999997      7.2986420000000001                7.401224
    22   1               11.202377      2.9564159999999999      5.4168610000000008
    23   1      6.5987129999999992      5.0712419999999998      5.4168610000000008
    24   1      3.6854209999999994               10.117212      5.4168610000000008
    25   1      7.8177149999999989      4.3640239999999997                7.401224
    26   1      1.9911300000000001      4.3640239999999997                7.401224
    27   1               10.731007      9.4099950000000003                7.401224
    28   1      4.9044220000000003      9.4099950000000003                7.401224
    29   1                  1.6024      6.8995770000000007      15.367066000000001
    30   1      1.9909349999999999      7.7290169999999998     0.81606499999999982
    31   1      10.730812999999998      2.6830460000000005     0.81606499999999982
    32   1      4.9042279999999998      2.6830460000000005     0.81606499999999982
    33   1      6.5977509999999988      8.4342629999999996      2.8003459999999998
    34   1     0.77116600000000002      8.4342629999999996      2.8003459999999998
    35   1      9.5110430000000008      3.3882919999999999      2.8003459999999998
    36   1      3.6844579999999993      3.3882919999999999      2.8003459999999998
    37   1      2.4624999999999999      8.0023859999999996      5.4168610000000008
    38   1                8.289085      8.0023859999999996      5.4168610000000008
    39   1      5.3757929999999998      2.9564159999999999      5.4168610000000008
    40   1      3.6834849999999997      7.2986420000000001                7.401224
    41   1     0.77212899999999984      5.0712419999999998      5.4168610000000008
    42   1      8.2903979999999997      1.2740720000000001      2.8003459999999998
    43   1                11.20369      6.3200430000000001      2.8003459999999998
    44   1               10.476404                0.329573      11.190645999999999
    45   1      11.698597999999999      2.3519920000000001       9.914905000000001
    46   1      10.777971000000001      2.5779619999999994               12.217525
    47   1                2.350546      2.1839629999999999               14.478456
    48   1                1.729177      2.8089879999999998               17.015127
    49   1    0.018804000000000001     0.74068999999999985      17.105782999999999
    50   1     0.64017299999999999                0.115665      14.569112000000001
    51   1                 2.36931     0.50574699999999995      16.317997999999999
    52   1      3.6016859999999999      7.7673059999999996      13.908786000000001
    53   1      5.8610709999999999      6.8743160000000012               15.052987
    54   1      5.9981400000000002      4.8980579999999998      13.239959000000001
    55   1      3.7387540000000001      5.7910490000000001      12.095756999999999
    56   1      5.6666790000000002      7.2827489999999999      12.604299999999999
    57   1      2.6185939999999999      4.7868149999999998               14.527861
    58   1               -0.025706      5.2495940000000001               14.457393
    59   1    0.028355000000000002      5.9530409999999998      17.048472999999998
    60   1      2.6726549999999998      5.4902620000000004      17.118939999999998
    61   1      8.4112559999999998                1.944558               11.772399
    62   1      5.3771050000000002      6.3200430000000001      2.8003459999999998
    63   1      9.6334499999999998      3.9669780000000001               10.496658
    64   1                 2.45688      9.9766999999999992      9.9492760000000011
    65   1      3.6844579999999993     0.57034399999999996     0.81606499999999982
    66   1      9.5110430000000008     0.57034399999999996     0.81606499999999982
    67   1     0.77116600000000002                5.616314     0.81606499999999982
    68   1      6.5977509999999988                5.616314     0.81606499999999982
    69   1      8.2145390000000003                2.371076      17.058337999999999
    70   1      7.4553319999999994      4.2809090000000003               15.329872
    71   1      5.2755660000000004                2.844433      14.700101999999999
    72   1      6.0347729999999995     0.93459999999999999      16.428567999999999
    73   1      5.9217560000000002                3.342565      17.052755999999999
    74   1               10.273952      7.4073209999999996      15.199490000000001
    75   1      10.330928999999999               10.081374      14.959397000000001
    76   1      8.1157350000000008      9.9925110000000004               13.443985
    77   1      8.0587579999999992      7.3184570000000004      13.684078000000001
    78   1      8.2848819999999996      8.8380069999999993      15.643800999999998
    79   1      5.1344099999999999      9.7734539999999992      9.9805010000000003
    80   1      5.1082070000000002      9.8406730000000007               12.664947
    81   1      2.4306760000000001               10.043918      12.633722000000001
    82   1                3.660199      8.3029270000000004      11.346124999999999
    83   1      9.5120050000000003               10.117212      5.4168610000000008
    84   2      1.6127180000000001                0.782748      4.7083020000000007
    85   2     0.77116600000000002     0.29682199999999997      6.0756550000000002
    86   2      6.5977509999999988     0.29682199999999997      6.0756550000000002
    87   2      3.6838090000000001     0.99342699999999995      7.9216669999999993
    88   2      9.5110430000000008      5.3427920000000011      1.3692119999999999
    89   2      3.6844579999999993      5.3427920000000011      1.3692119999999999
    90   2      6.5977509999999988     0.29682199999999997      1.3692119999999999
    91   2     0.77116600000000002     0.29682199999999997      1.3692119999999999
    92   2      8.6701080000000008                4.857278                       0
    93   2      2.8435229999999998                4.857278                       0
    94   2      11.583399999999999      9.9032490000000006                       0
    95   2      5.7568149999999996      9.9032490000000006                       0
    96   2      6.5977509999999988      4.6281119999999998      3.3038509999999994
    97   2      9.5110430000000008                1.978812      6.5902830000000003
    98   2     0.77116600000000002      7.0247830000000011      6.5902830000000003
    99   2      3.6844579999999993      5.3427920000000011      6.0756550000000002
   100   2      6.5971019999999987      6.0393980000000003      7.9216660000000001
   101   2      2.8314140000000001      2.4720659999999999      7.9216660000000001
   102   2      7.4393029999999998                0.782748      4.7083020000000007
   103   2      4.5260109999999996      5.8287180000000003      4.7083020000000007
   104   2               10.352596      5.8287190000000004      4.7083020000000007
   105   2     0.77116600000000002      4.6281119999999998      3.3038509999999994
   106   2      9.5110430000000008      9.6740829999999995      3.3038509999999994
   107   2      8.6694420000000001      5.8286350000000002      4.7083020000000007
   108   2      6.5977509999999988      3.6608019999999999                 1.93343
   109   2     0.77116600000000002      3.6608019999999999                 1.93343
   110   2                1.612101      9.9032490000000006                       0
   111   2      9.5110430000000008      8.7067730000000001                 1.93343
   112   2      3.6844579999999993      8.7067730000000001                 1.93343
   113   2      10.351978000000001                4.857278                       0
   114   2      6.5977509999999988      7.0247830000000011      6.5902830000000003
   115   2      4.5253930000000002                4.857278                       0
   116   2      9.5110430000000008      5.3427920000000011      6.0756550000000002
   117   2                2.846743      8.2231179999999995      3.3038509999999994
   118   2      8.6733279999999997      8.2231179999999995      3.3038509999999994
   119   2      5.7600360000000004      3.1771470000000002      3.3038509999999994
   120   2      11.586620999999999      3.1771470000000002      3.3038509999999994
   121   2                4.538151                2.470942      7.9216660000000001
   122   2      9.5103939999999998     0.99342799999999998      7.9216669999999993
   123   2      10.364736000000001      2.4709430000000001      7.9216669999999993
   124   2      1.6248579999999999      7.5169130000000006      7.9216660000000001
   125   2      7.4514429999999994      7.5169130000000006      7.9216660000000001
   126   2      3.6844579999999993      9.6740829999999995      3.3038509999999994
   127   2      8.6579999999999995      2.4720659999999999      7.9216660000000001
   128   2     0.77051700000000001      6.0393980000000003      7.9216660000000001
   129   2                5.744707      7.5180369999999996      7.9216660000000001
   130   2               11.571292      7.5180369999999996      7.9216669999999993
   131   2      9.5110910000000004      4.3710240000000002      4.7083020000000007
   132   2      3.6844579999999993                1.978812      6.5902830000000003
   133   2      1.6088800000000001      3.1771470000000002      3.3038509999999994
   134   2               10.348758      8.2231179999999995      3.3038509999999994
   135   2      4.5221730000000004      8.2231179999999995      3.3038509999999994
   136   2      6.5977989999999993      9.4169940000000008      4.7083020000000007
   137   2     0.77121399999999984      9.4169940000000008      4.7083020000000007
   138   2      3.6845059999999998      4.3710230000000001      4.7083020000000007
   139   2      3.6844579999999993      6.3138210000000008                       0
   140   2      9.5110430000000008      6.3138210000000008                       0
   141   2     0.77116600000000002      1.2678499999999999                       0
   142   2      6.5977509999999988      1.2678499999999999                       0
   143   2      5.7561499999999999     0.78266500000000006      4.7083020000000007
   144   2               11.582735     0.78266500000000006      4.7083020000000007
   145   2      2.8428580000000001      5.8286350000000002      4.7083020000000007
   146   2      7.4354649999999989      3.1771470000000002      3.3038509999999994
   147   2      7.4386859999999997      9.9032490000000006                       0
   148   3      1.2825530000000001      5.1455139999999995      15.849946000000001
   149   3      6.8658380000000001      2.4999509999999998               15.707051
   150   3      9.9488489999999992      2.0852360000000001               10.642092
   151   3      1.0108779999999999      1.6026660000000001      15.714967999999999
   152   3      4.6727499999999997      6.1932990000000006      13.716691000000001
   153   3      9.3283439999999995      8.6796559999999996      14.127777999999999
   154   3      3.8004920000000002               10.144266      11.301387999999999
   155   4      6.5977509999999988      3.6608019999999999      2.9597560000000001
   156   4      6.5977509999999988     0.29682199999999997     0.34254499999999999
   157   4      3.6844589999999995                1.978812      7.6208779999999994
   158   4      9.5110419999999998                1.978812      7.6208779999999994
   159   4     0.77116600000000002      7.0247820000000001      7.6208779999999994
   160   4     0.77116600000000002      3.6608019999999999      2.9597560000000001
   161   4      6.5977509999999988      7.0247820000000001      7.6208779999999994
   162   4     0.77116700000000005                0.296821      5.0474070000000006
   163   4     0.77116600000000002     0.29682199999999997     0.34254499999999999
   164   4      3.6844579999999993      8.7067730000000001      2.9597560000000001
   165   4      9.5110430000000008      5.3427920000000011     0.34254499999999999
   166   4      3.6844579999999993      5.3427920000000011     0.34254499999999999
   167   4      6.5977509999999988     0.29682199999999997      5.0474080000000008
   168   4      9.5110430000000008      8.7067730000000001      2.9597560000000001
   169   4      9.5110430000000008      5.3427920000000011      5.0474080000000008
   170   4      3.6844579999999993      5.3427930000000012      5.0474080000000008
   171   5      9.5110430000000008                1.978812      1.8016859999999999
   172   5      6.5977499999999996      3.6608019999999999      6.4203420000000007
   173   5     0.77116600000000002      3.6608019999999999      6.4203420000000007
   174   5      3.6844579999999993      8.7067730000000001      6.4203420000000007
   175   5      6.5977509999999988      7.0247830000000011      1.8016859999999999
   176   5     0.77116600000000002      7.0247830000000011      1.8016859999999999
   177   5      3.6844579999999993                1.978812      1.8016859999999999
   178   5      9.5110430000000008      8.7067730000000001      6.4203420000000007
