LAMMPS (23 Jun 2022 - Update 4)
#LAMMPS
################################################################################
#                                 Basic Input                                  #
################################################################################
units           metal     # K, bar, ps, A
box             tilt large
boundary        p p p
newton          on

read_data       input.data
Reading data file ...
  triclinic box = (0 0 0) to (11.65351 10.092235 24.290025) with tilt (0 0 0)
  1 by 1 by 1 MPI processor grid
  reading atoms ...
  136 atoms
  read_data CPU = 0.001 seconds

variable        m_Si       equal   28.0855
variable        m_N        equal   14.0067
variable        m_H        equal   1.0078
variable        m_F        equal   18.9984

mass        1   ${m_H}
mass        1   1.0078
mass        2   ${m_N}
mass        2   14.0067
mass        3   ${m_F}
mass        3   18.9984
mass        4   ${m_Si}
mass        4   28.0855

################################################################################
#                                Pair potential                                #
################################################################################
variable        path_r0ab       string   "/data2/andynn/lammps_d3/13_rewrite_csv/r0ab_new.csv"
variable        path_c6ab       string   "/data2/andynn/lammps_d3/13_rewrite_csv/d3_pars.csv"
variable        cutoff_d3       equal   9000
variable        cutoff_d3_CN    equal   1600
variable        func_type       string  "pbe"
variable        damping_type    string  "d3_damp_bj"
variable        path_potential  string "/data2/shared_data/pretrained/7net_m3g/deployed_serial.pt"
variable        element_list    string  "H N F Si"
pair_style      hybrid/overlay  e3gnn   d3   ${cutoff_d3}  ${cutoff_d3_CN}  ${damping_type}
pair_style      hybrid/overlay  e3gnn   d3   9000  ${cutoff_d3_CN}  ${damping_type}
pair_style      hybrid/overlay  e3gnn   d3   9000  1600  ${damping_type}
pair_style      hybrid/overlay  e3gnn   d3   9000  1600  d3_damp_bj
PairE3GNN using device : CUDA
pair_coeff      * *  e3gnn  ${path_potential}  ${element_list}
pair_coeff      * *  e3gnn  /data2/shared_data/pretrained/7net_m3g/deployed_serial.pt  ${element_list}
pair_coeff      * *  e3gnn  /data2/shared_data/pretrained/7net_m3g/deployed_serial.pt  H N F Si
Chemical specie 'H' is assigned to type 1
Chemical specie 'N' is assigned to type 2
Chemical specie 'F' is assigned to type 3
Chemical specie 'Si' is assigned to type 4
from sevenn version '0.9.1' single precision model trained at 2024-05-01 is loaded
pair_coeff      * *  d3     ${path_r0ab} ${path_c6ab} ${func_type} ${element_list}
pair_coeff      * *  d3     /data2/andynn/lammps_d3/13_rewrite_csv/r0ab_new.csv ${path_c6ab} ${func_type} ${element_list}
pair_coeff      * *  d3     /data2/andynn/lammps_d3/13_rewrite_csv/r0ab_new.csv /data2/andynn/lammps_d3/13_rewrite_csv/d3_pars.csv ${func_type} ${element_list}
pair_coeff      * *  d3     /data2/andynn/lammps_d3/13_rewrite_csv/r0ab_new.csv /data2/andynn/lammps_d3/13_rewrite_csv/d3_pars.csv pbe ${element_list}
pair_coeff      * *  d3     /data2/andynn/lammps_d3/13_rewrite_csv/r0ab_new.csv /data2/andynn/lammps_d3/13_rewrite_csv/d3_pars.csv pbe H N F Si

################################################################################
#                                Slab settings                                 #
################################################################################
variable    fix_h       equal   4.0
region      rFixed      block   INF INF INF INF 0.0 ${fix_h}
region      rFixed      block   INF INF INF INF 0.0 4
group       gBottom     region  rFixed
68 atoms in group gBottom
velocity    gBottom     set     0.0 0.0 0.0
fix         frz_bot     gBottom     setforce    0.0 0.0 0.0

################################################################################
#                                     LOG                                      #
################################################################################
variable        log_step        equal   1
thermo_style    custom          step pe vol press pxx pyy pzz pxy pyz pxz fmax
thermo          ${log_step}
thermo          1

dump            my_dump     all custom ${log_step} dump.lammps                             id type element xu yu zu fx fy fz
dump            my_dump     all custom 1 dump.lammps                             id type element xu yu zu fx fy fz
dump_modify     my_dump     sort id     element ${element_list}
dump_modify     my_dump     sort id     element H N F Si

################################################################################
#                                     Run                                      #
################################################################################
min_style       quickmin
minimize        0 0.02  100000 100000
WARNING: Using 'neigh_modify every 1 delay 0 check yes' setting during minimization (src/min.cpp:187)
Neighbor list info ...
  update every 1 steps, delay 0 steps, check yes
  max neighbors/atom: 2000, page size: 100000
  master list distance cutoff = 7
  ghost atom cutoff = 7
  binsize = 3.5, bins = 4 3 7
  2 neighbor lists, perpetual/occasional/extra = 2 0 0
  (1) pair e3gnn, perpetual
      attributes: full, newton on
      pair build: full/bin/atomonly
      stencil: full/bin/3d
      bin: standard
  (2) pair d3, perpetual, copy from (1)
      attributes: full, newton on
      pair build: copy
      stencil: none
      bin: none
Per MPI rank memory allocation (min/avg/max) = 4.779 | 4.779 | 4.779 Mbytes
   Step         PotEng         Volume         Press           Pxx            Pyy            Pzz            Pxy            Pyz            Pxz            Fmax     
         0  -707.67291      2856.7488     -266.82814     -573.78236      1698.0911     -1924.7932      56.668707      4154.1037     -1225.7124      0.98119492   
         1  -707.67291      2856.7488     -263.95001     -572.48336      1699.4031     -1918.7697      56.671949      4154.1051     -1225.7092      0.98119528   
         2  -708.03091      2856.7488     -298.12096     -581.39775      1787.5091     -2100.4742      115.73229      3960.8046     -880.99713      0.89184821   
         3  -708.16911      2856.7488     -401.00776     -478.7379       1551.6482     -2275.9336      309.50774      3924.622      -250.982        0.73426431   
         4  -708.19115      2856.7488     -422.34379     -231.46982      1337.4767     -2373.0382      523.2975       4022.7766      565.81746      0.45877692   
         5  -708.22514      2856.7488     -516.86862     -152.87027      993.45536     -2391.191       634.71098      4149.484       1577.2707      0.18721246   
         6  -708.2453       2856.7488     -568.03565     -99.952767      944.45832     -2548.6125      637.12729      4563.438       2332.2247      0.13265103   
         7  -708.25558      2856.7488     -884.01369      95.936933     -18.902122     -2729.0759      470.91149      4252.2342      2386.7911      0.26478057   
         8  -708.25803      2856.7488     -569.18939     -25.53972       850.75421     -2532.7827      507.27547      4786.1221      2550.9722      0.11289439   
         9  -708.25831      2856.7488     -618.17478     -24.553062      767.5346      -2597.5059      514.13517      4743.2179      2562.2895      0.11257253   
        10  -708.25923      2856.7488     -705.62598     -15.141824      559.05837     -2660.7945      535.07657      4656.258       2600.439       0.11132579   
        11  -708.26048      2856.7488     -687.66604     -15.156391      575.75735     -2623.5991      551.96279      4696.9912      2657.451       0.10860113   
        12  -708.26218      2856.7488     -690.89108     -11.073253      536.24012     -2597.8401      570.43518      4710.0065      2692.7475      0.10523764   
        13  -708.26411      2856.7488     -644.77411     -0.17818119     601.29088     -2535.435       582.40394      4777.5556      2735.3178      0.10112008   
        14  -708.2663       2856.7488     -739.35171      0.24018617     365.74458     -2584.0399      621.37362      4681.9521      2719.2667      0.098624765  
        15  -708.2677       2856.7488     -430.65115      22.98155       1025.0382     -2339.9732      578.40351      5049.6317      2835.5575      0.16724667   
        16  -708.26833      2856.7488     -550.36451      13.765841      785.72479     -2450.5842      599.56029      4921.2025      2794.4234      0.093370191  
        17  -708.2692       2856.7488     -720.75401      6.6401855      397.78374     -2566.686       634.49998      4723.5724      2732.1609      0.095083539  
        18  -708.26989      2856.7488     -622.08166      13.754871      613.57835     -2493.5782      620.07908      4841.3629      2770.2455      0.092719421  
        19  -708.27084      2856.7488     -681.67163      11.580599      473.32138     -2529.9169      634.74505      4774.5533      2744.7506      0.09267708   
        20  -708.2264       2856.7488     -634.50254     -32.474162      597.21049     -2468.2439      608.36333      4847.7076      2782.3038      0.11259492   
        21  -708.22787      2856.7488     -617.09354      44.368496      604.77247     -2500.4216      669.88131      4816.7045      2800.8198      0.10462444   
        22  -708.22943      2856.7488     -690.08414     -145.06797      471.56065     -2396.7451      689.39536      4786.7998      2779.4721      0.10586566   
        23  -708.23053      2856.7488     -578.66647      149.09342      635.75114     -2520.844       685.179        4807.4321      2828.902       0.094188132  
        24  -708.23117      2856.7488     -641.36558     -15.267614      546.48585     -2455.315       697.63953      4792.8072      2805.8203      0.097820455  
        25  -708.23208      2856.7488     -635.06635      3.8245923      544.80344     -2453.8271      697.10982      4791.2793      2808.6484      0.095402238  
        26  -708.23333      2856.7488     -636.5203      -13.329272      542.76346     -2438.9951      704.61769      4792.1279      2808.3788      0.092895841  
        27  -708.23494      2856.7488     -621.49411      25.236313      543.5604      -2433.279       697.73748      4794.642       2810.067       0.088542265  
        28  -708.23685      2856.7488     -644.23365     -82.035433      543.2945      -2393.96        721.36935      4802.5754      2801.1191      0.08670539   
        29  -708.23859      2856.7488     -543.38672      273.02236      548.89344     -2452.076       633.26199      4806.3702      2812.2929      0.10819581   
        30  -708.18472      2856.7488     -669.21853     -202.92335      558.57489     -2363.3071      721.68403      4824.6481      2802.0249      0.08307675   
        31  -708.18503      2856.7488     -651.19509     -123.12171      554.32392     -2384.7875      698.93764      4822.5047      2805.107       0.080624913  
        32  -708.18569      2856.7488     -618.69819     -11.181586      556.46921     -2401.3822      666.41737      4823.3195      2810.004       0.076925148  
        33  -708.18657      2856.7488     -633.93568     -84.718329      560.15148     -2377.2402      676.136        4829.293       2804.0661      0.077800092  
        34  -708.18769      2856.7488     -602.3767       21.531003      557.2127      -2385.8738      637.11687      4833.3306      2802.1534      0.073781533  
        35  -708.18882      2856.7488     -648.84949     -179.74496      570.25623     -2337.0597      681.42717      4844.1216      2789.542       0.07753355   
        36  -708.18962      2856.7488     -564.38157      144.60061      553.30904     -2391.0544      585.59723      4843.1284      2792.9909      0.094902328  
        37  -708.19013      2856.7488     -609.12575     -26.354639      562.77388     -2363.7965      631.03752      4847.162       2787.3252      0.071835218  
        38  -708.19074      2856.7488     -614.03489     -52.867653      563.32799     -2352.565       633.0804       4850.9244      2782.5816      0.071615163  
        39  -708.19161      2856.7488     -603.79049     -26.517946      564.02768     -2348.8812      620.1133       4855.556       2778.2916      0.069621908  
        40  -708.19274      2856.7488     -612.73515     -79.231992      568.157       -2327.1305      625.9947       4862.8401      2769.6395      0.06927876   
        41  -708.15035      2856.7488     -586.73152      109.34287      442.01863     -2311.5561      646.37623      5166.4271      2707.333       0.24538895   
        42  -708.15086      2856.7488     -671.31115     -161.62882      470.64235     -2322.947       763.98483      5143.8486      2624.226       0.16431135   
        43  -708.15184      2856.7488     -767.69295     -502.4997       521.67382     -2322.253       883.68737      5103.9986      2516.6102      0.11704166   
        44  -708.15283      2856.7488     -710.81478     -360.2677       540.32641     -2312.503       706.5909       5061.9554      2553.5487      0.093296113  
        45  -708.15398      2856.7488     -705.92668     -380.89088      560.09238     -2296.9815      600.3192       4994.7178      2538.8065      0.060895331  
        46  -708.155        2856.7488     -571.04482     -3.847526       558.98173     -2268.2687      290.52089      4957.2926      2638.5038      0.070988316  
        47  -708.14515      2856.7488     -862.79619     -862.50512      562.7011      -2288.5846      616.90215      4966.8532      2458.921       0.12992073   
        48  -708.14515      2856.7488     -867.85757     -868.03877      561.02479     -2296.5587      617.67893      4966.7284      2456.934       0.12992064   
        49  -708.14546      2856.7488     -792.28348     -621.17134      529.67972     -2285.3588      472.14097      4976.9806      2530.3685      0.077935078  
        50  -708.14574      2856.7488     -668.49246     -218.27828      475.62914     -2262.8283      232.15467      4993.2383      2644.801       0.03907354   
        51  -708.14601      2856.7488     -702.62264     -333.38216      485.488       -2259.9737      291.18122      4987.5155      2594.2853      0.034876512  
        52  -708.14634      2856.7488     -683.7243      -285.94598      484.42218     -2249.6491      254.24419      4993.0065      2592.3673      0.03418042   
        53  -708.14674      2856.7488     -697.50368     -351.93988      501.94692     -2242.5181      281.66361      4995.1473      2556.302       0.034551219  
        54  -708.14721      2856.7488     -649.93177     -219.08028      497.61688     -2228.3319      197.5266       5009.5104      2581.2364      0.032995177  
        55  -708.14773      2856.7488     -734.7879      -510.27005      535.38985     -2229.4835      358.43154      4997.4077      2486.0888      0.057853626  
        56  -708.14801      2856.7488     -616.95136     -130.97464      496.66658     -2216.546       142.07846      5022.8987      2591.2753      0.039848311  
        57  -708.14809      2856.7488     -663.54553     -282.11745      513.12997     -2221.6491      226.57055      5014.6626      2547.0118      0.033050807  
        58  -708.14837      2856.7488     -671.87054     -315.54469      518.27731     -2218.3443      245.32317      5014.819       2534.1013      0.033227567  
        59  -708.14867      2856.7488     -660.31436     -285.70195      516.07003     -2211.3112      227.98082      5018.8955      2539.79        0.032749538  
        60  -708.14902      2856.7488     -669.83411     -327.7657       523.30213     -2205.0388      251.9978       5019.7845      2524.121       0.0329186    
        61  -707.99429      2856.7488     -608.14096     -171.70898      492.5456      -2145.2595      194.5906       5013.6247      2549.4072      0.061447489  
        62  -707.99453      2856.7488     -558.77672     -324.82074      762.2182      -2113.7276      285.13014      5087.7874      2504.053       0.055050051  
        63  -707.99472      2856.7488     -589.236       -260.81944      618.50222     -2125.3908      247.71108      5033.3209      2521.886       0.03598303   
        64  -707.99498      2856.7488     -608.26375     -224.8319       527.09844     -2127.0578      225.59329      4993.6593      2532.0767      0.027296844  
        65  -707.99516      2856.7488     -595.94256     -258.77003      588.4962      -2117.5538      243.86751      5005.6016      2521.7976      0.029481485  
        66  -707.99551      2856.7488     -616.30049     -212.17169      481.66202     -2118.3918      216.8373       4961.2359      2534.2486      0.036017775  
        67  -707.99587      2856.7488     -580.28673     -298.55805      657.61862     -2099.9208      265.13112      5016.1331      2509.8029      0.040880765  
        68  -708.00633      2856.7488     -569.6811      -55.082376      447.94684     -2101.9078      244.7977       4857.6628      2499.057       0.060391984  
        69  -708.00643      2856.7488     -557.13419     -135.36412      570.74225     -2106.7807      300.71697      4888.6659      2473.2171      0.038736352  
        70  -707.99633      2856.7488     -598.43925     -298.05679      623.94787     -2121.2088      283.49691      4981.9379      2512.413       0.05023029   
        71  -708.00677      2856.7488     -533.7904      -74.055691      564.20353     -2091.519       249.30143      4893.6753      2518.7292      0.051193037  
        72  -708.00688      2856.7488     -542.98481     -136.5013       609.65394     -2102.1071      300.90252      4895.5626      2490.6531      0.034302922  
        73  -707.99666      2856.7488     -599.19263     -278.64014      599.12987     -2118.0676      273.82613      4967.521       2530.7747      0.0471986    
        74  -708.00721      2856.7488     -530.77142     -62.288686      554.06564     -2084.0912      241.19898      4887.0764      2535.1451      0.052553911  
        75  -708.00731      2856.7488     -541.55678     -129.09929      599.97824     -2095.5493      296.58574      4888.8523      2503.1553      0.031866121  
        76  -707.997        2856.7488     -598.71701     -277.99692      594.0282      -2112.1823      275.40265      4961.9905      2537.3905      0.047261321  
        77  -708.00764      2856.7488     -530.32572     -64.558959      552.56463     -2078.9828      244.18831      4883.3864      2540.0126      0.050248549  
        78  -708.00774      2856.7488     -540.38989     -127.95176      596.51114     -2089.7291      296.70723      4885.5969      2509.2552      0.03012009   
        79  -707.99733      2856.7488     -596.70661     -274.51417      590.24402     -2105.8497      274.1852       4959.5035      2542.8119      0.046218638  
        80  -708.00793      2856.7488     -528.93914     -63.937819      550.14783     -2073.0274      244.59445      4881.6979      2543.7045      0.049367345  
        81  -708.00809      2856.7488     -538.69197     -126.71853      594.26766     -2083.625       296.58817      4884.4005      2512.8935      0.02899814   
        82  -707.99765      2856.7488     -594.45829     -272.32456      588.4592      -2099.5095      273.89873      4958.8195      2545.6817      0.045601146  
        83  -708.00835      2856.7488     -527.18342     -63.834542      549.35396     -2067.0697      245.32881      4881.6518      2545.6394      0.04859856   
        84  -708.00844      2856.7488     -536.74442     -125.51448      592.71883     -2077.4376      296.43446      4884.568       2515.1193      0.028257685  
        85  -708.00859      2856.7488     -536.73841     -149.65985      621.43899     -2081.9944      318.1605       4887.9451      2506.8661      0.025503706  
        86  -708.00884      2856.7488     -526.57789     -111.30509      606.92462     -2075.3532      288.95294      4887.5414      2532.8568      0.024440679  
        87  -707.99852      2856.7488     -589.48252     -273.35099      591.70518     -2086.8017      280.86091      4956.0389      2555.2029      0.049910289  
        88  -708.00925      2856.7488     -515.04549     -7.4459796      503.15596     -2040.8464      201.22763      4876.8859      2582.7986      0.066176541  
        89  -708.00935      2856.7488     -521.60969     -42.989366      526.43679     -2048.2765      230.52595      4879.0984      2564.0462      0.054455929  
        90  -708.00942      2856.7488     -536.4831      -143.76267      598.02334     -2063.71        313.72934      4884.5634      2512.0367      0.024993311  
        91  -707.99892      2856.7488     -582.78458     -252.56119      579.23224     -2075.0248      264.18567      4960.8453      2560.5064      0.038963883  
        92  -708.00968      2856.7488     -518.93944     -48.487779      532.29089     -2040.6214      235.65109      4883.5589      2556.6524      0.052320046  
        93  -708.00976      2856.7488     -529.26741     -117.39541      582.05684     -2052.4637      292.75148      4887.9605      2521.7012      0.028780459  
        94  -707.99925      2856.7488     -584.37511     -270.83586      587.71394     -2070.0034      279.68234      4964.4001      2546.1113      0.045284268  
        95  -708.01007      2856.7488     -518.76289     -69.996072      553.85905     -2040.1517      254.74054      4889.3531      2543.7807      0.043272136  
        96  -708.01015      2856.7488     -526.31073     -121.71884      591.71198     -2048.9253      297.86528      4892.67        2517.8721      0.026174091  
        97  -708.01023      2856.7488     -525.90368     -143.45635      618.88151     -2053.1362      317.65691      4896.8678      2509.5771      0.023859733  
        98  -708.01046      2856.7488     -516.75573     -109.18757      606.07        -2047.1496      291.92293      4897.2903      2531.5861      0.023133805  
        99  -707.99994      2856.7488     -576.58227     -263.20377      591.43732     -2057.9804      280.34105      4966.7211      2554.7616      0.046637328  
       100  -708.01079      2856.7488     -506.29112     -10.400887      505.66836     -2014.1408      208.62801      4887.631       2576.6426      0.062793232  
       101  -708.01083      2856.7488     -511.90701     -42.166749      527.22748     -2020.7818      234.87747      4889.9437      2559.9087      0.052266345  
       102  -708.01094      2856.7488     -525.37324     -137.43593      596.92937     -2035.6132      313.90753      4896.0836      2510.7291      0.024307704  
       103  -708.01115      2856.7488     -518.13439     -131.1145       613.42733     -2036.716       311.24952      4901.9006      2516.8093      0.022756015  
       104  -708.00054      2856.7488     -565.30648     -229.35775      576.22238     -2042.7841      255.8966       4972.1721      2567.6         0.033793849  
       105  -708.01146      2856.7488     -506.4401      -26.790483      510.22769     -2002.7575      223.46234      4892.9118      2562.5344      0.060352112  
       106  -708.01153      2856.7488     -516.27224     -92.494759      558.81468     -2015.1367      278.06297      4897.7672      2528.3282      0.037415262  
       107  -708.01168      2856.7488     -522.29232     -162.3739       623.63863     -2028.1417      337.63139      4906.354       2493.8963      0.025609485  
       108  -708.01181      2856.7488     -504.84897     -94.414451      599.83725     -2019.9697      284.91255      4908.7645      2532.6911      0.023371041  
       109  -708.00116      2856.7488     -568.83842     -271.55802      600.30608     -2035.2633      294.17102      4978.1354      2541.3791      0.050677163  
       110  -708.01209      2856.7488     -501.0932      -44.211627      541.06916     -2000.1371      242.77328      4902.2194      2554.7511      0.045936649  
       111  -708.01214      2856.7488     -507.05187     -81.029387      566.44724     -2006.5735      273.2496       4904.6919      2535.7392      0.033687885  
       112  -708.01226      2856.7488     -514.47451     -141.04298      613.52088     -2015.9014      323.7303       4909.5901      2505.4127      0.022515974  
       113  -708.01245      2856.7488     -504.72353     -109.34489      606.81554     -2011.6412      299.85242      4912.2886      2524.7214      0.022130864  
       114  -708.00167      2856.7488     -559.46511     -244.44648      587.64164     -2021.5905      276.3505       4981.4622      2553.2757      0.040701677  
       115  -708.01274      2856.7488     -495.92551     -24.029842      519.18318     -1982.9299      227.74411      4903.9371      2561.8124      0.055139507  
       116  -708.01278      2856.7488     -502.20405     -63.07077       546.81484     -1990.3562      260.13393      4906.8179      2541.4032      0.041928126  
       117  -708.0129       2856.7488     -512.29625     -143.66013      610.40841     -2003.637       327.80184      4913.591       2499.9021      0.022880059  
       118  -708.01302      2856.7488     -501.24253     -110.92985      607.88098     -2000.6787      303.44831      4917.6196      2519.5564      0.022344066  
       119  -708.00225      2856.7488     -553.95362     -239.42675      587.97762     -2010.4117      275.68145      4987.0046      2551.3379      0.038953725  
       120  -708.01324      2856.7488     -492.20102     -26.076958      522.63157     -1973.1577      232.10969      4909.3568      2556.6355      0.053487337  
       121  -708.01328      2856.7488     -498.45807     -65.8961        551.14299     -1980.6211      265.1698       4912.3974      2536.065       0.039991641  
       122  -708.0134       2856.7488     -507.80347     -142.91667      612.96162     -1993.4553      330.04784      4919.2383      2496.613       0.022826516  
       123  -708.01352      2856.7488     -496.38659     -107.15959      608.1454      -1990.1456      303.28018      4922.8923      2517.9911      0.022380006  
       124  -708.00276      2856.7488     -549.7638      -239.1759       590.07139     -2000.1869      279.22878      4991.8001      2547.2573      0.039169291  
       125  -708.01379      2856.7488     -488.30686     -27.349415      526.38191     -1963.9531      236.13913      4914.4258      2553.0724      0.051488306  
       126  -708.01383      2856.7488     -493.99585     -63.7075        552.5276      -1970.8077      266.34022      4917.2704      2534.192       0.039173118  
       127  -708.01388      2856.7488     -503.16084     -138.49267      612.16105     -1983.1509      329.31453      4923.9036      2496.09        0.022769626  
       128  -708.01406      2856.7488     -492.68002     -107.16566      609.58106     -1980.4555      306.2251       4927.514       2514.7784      0.022213235  
       129  -708.00313      2856.7488     -544.73857     -233.91202      589.51618     -1989.8199      278.66349      4996.1736      2546.5524      0.037380649  
       130  -708.01433      2856.7488     -484.62513     -26.213633      526.31934     -1953.9811      237.96096      4918.6272      2550.2076      0.051200871  
       131  -708.01437      2856.7488     -490.09115     -61.887406      552.34707     -1960.7331      267.70018      4921.5671      2531.7143      0.039018082  
       132  -708.01442      2856.7488     -499.22214     -136.56519      612.14894     -1973.2502      330.71165      4928.2843      2493.8101      0.022730779  
       133  -708.01459      2856.7488     -488.60702     -105.75725      610.63886     -1970.7027      307.98687      4932.2049      2512.3631      0.022156462  
       134  -708.00367      2856.7488     -540.29708     -230.82444      590.00336     -1980.0702      279.80527      5000.3219      2544.1348      0.036634099  
       135  -708.0148       2856.7488     -480.87815     -26.219281      528.4486      -1944.8638      240.98608      4923.09        2547.0192      0.050096595  
       136  -708.01483      2856.7488     -486.09204     -60.241092      553.28906     -1951.3241      269.43416      4925.911       2529.3595      0.03843886   
       137  -708.01494      2856.7488     -494.94235     -133.41363      612.28039     -1963.6938      331.17647      4932.6512      2492.1025      0.022675124  
       138  -708.01505      2856.7488     -484.8925      -104.6318       611.48912     -1961.5348      310.08184      4936.4671      2509.6688      0.022056992  
       139  -708.01522      2856.7488     -485.72451     -116.7349       621.03934     -1961.478       321.93882      4936.9307      2505.3573      0.020399727  
       140  -708.01541      2856.7488     -478.46584     -83.469817      600.78387     -1952.7116      296.07066      4936.1502      2526.7615      0.021644024  
       141  -708.00445      2856.7488     -542.3987      -271.91344      612.4377      -1967.7204      321.55576      5003.4736      2518.5376      0.056120204  
       142  -708.01572      2856.7488     -475.04605     -36.13011       544.2364      -1933.2444      255.55451      4929.769       2544.9834      0.04113      
       143  -708.01567      2856.7488     -476.49451     -43.584213      549.35768     -1935.257       261.80386      4930.8117      2540.9134      0.038615391  
       144  -708.01574      2856.7488     -484.47823     -100.61636      591.34843     -1944.1668      309.59851      4935.0005      2510.5333      0.021899239  
       145  -708.00465      2856.7488     -533.14214     -231.35082      589.19027     -1957.2659      288.38125      5007.5628      2535.8991      0.035270323  
       146  -708.01594      2856.7488     -476.99112     -59.218582      560.58683     -1932.3416      275.51378      4934.784       2526.3116      0.034186679  
       147  -708.01593      2856.7488     -481.79457     -96.788833      590.33606     -1938.9309      307.24849      4938.479       2507.1234      0.02301756   
       148  -708.01603      2856.7488     -482.46096     -123.07226      619.78037     -1944.091       330.76867      4943.6057      2494.6607      0.021020887  
       149  -708.01616      2856.7488     -473.70299     -90.366315      608.7225      -1939.4651      306.0697       4944.7952      2513.4708      0.020915377  
       150  -708.00513      2856.7488     -528.30203     -233.24472      597.9053      -1949.5667      295.18832      5012.2447      2532.9238      0.038597683  
       151  -708.01635      2856.7488     -468.34823     -22.345893      532.77808     -1915.4769      248.33105      4935.4993      2541.4226      0.04634162   
       152  -708.0165       2856.7488     -471.51986     -42.088955      546.93544     -1919.4061      264.69355      4937.4341      2531.2833      0.039752378  
       153  -708.01646      2856.7488     -480.40555     -111.4174       600.96975     -1930.769       323.07066      4943.6672      2495.6289      0.022340974  
       154  -708.01657      2856.7488     -475.48467     -112.57973      619.21466     -1933.0889      326.55372      4949.1753      2496.5522      0.020914116  
       155  -708.01671      2856.7488     -469.43811     -90.754758      611.60042     -1929.16        310.78288      4949.6182      2509.5899      0.020465273  
       156  -708.00557      2856.7488     -522.2521      -225.9955       596.5846      -1937.3454      294.75144      5016.6636      2533.0529      0.035702224  
       157  -708.01693      2856.7488     -462.72447     -6.1558325      518.18907     -1900.2066      238.5175       4937.7795      2544.3825      0.05196513   
       158  -708.01699      2856.7488     -464.33448     -14.123889      523.60002     -1902.4796      245.08981      4938.8774      2540.2845      0.04935663   
       159  -708.01706      2856.7488     -473.8648      -86.158658      578.7941      -1914.2298      305.62706      4945.2754      2503.3529      0.024891062  
       160  -708.00584      2856.7488     -523.63595     -239.8869       601.39905     -1932.42        306.22081      5020.9525      2516.1654      0.038936301  
       161  -708.01719      2856.7488     -468.71593     -77.280538      583.03119     -1911.8984      299.95758      4949.7308      2505.2637      0.0248374    
       162  -708.01725      2856.7488     -470.87173     -100.80505      604.61029     -1916.4204      320.47214      4952.8846      2493.6534      0.022697837  
       163  -708.01728      2856.7488     -469.15081     -109.28699      620.7175      -1918.8829      329.45469      4956.336       2490.8635      0.021274013  
       164  -708.0174       2856.7488     -463.6991      -90.393231      615.0164      -1915.7205      315.86746      4956.9252      2502.7955      0.020746613  
       165  -708.00617      2856.7488     -514.2567      -214.53135      595.14748     -1923.3862      292.18517      5022.7964      2530.95        0.032774888  
       166  -708.05248      2856.7488     -427.64591     -70.090612      691.05379     -1903.9009      177.01242      4568.1673      2593.2328      0.24463716   
       167  -708.05256      2856.7488     -413.74976     -28.56322       691.50615     -1904.1922      161.96028      4574.3827      2606.025       0.24193591   
       168  -708.05344      2856.7488     -324.36531      230.09876      697.65767     -1900.8524      72.46578       4614.415       2686.3965      0.22357336   
       169  -708.05458      2856.7488     -261.61806      419.83878      696.79898     -1901.4919      68.415458      4683.8564      2754.9844      0.19035309   
       170  -708.05607      2856.7488     -365.63022      149.31868      666.85004     -1913.0594      336.40692      4754.7665      2699.713       0.15333502   
       171  -708.05742      2856.7488     -265.90357      442.22506      670.13032     -1910.0661      316.6717       4866.0359      2793.6777      0.099537869  
       172  -708.05795      2856.7488     -602.84173     -449.91157      571.36056     -1929.9742      820.15797      4836.0134      2554.7375      0.19501628   
       173  -708.05795      2856.7488     -606.34973     -458.44195      570.89907     -1931.5063      820.35603      4835.9701      2553.4408      0.19501588   
       174  -708.05828      2856.7488     -507.44242     -196.69274      600.31327     -1925.9478      690.2457       4861.6851      2624.2555      0.10557172   
       175  -708.05869      2856.7488     -355.02822      206.82262      644.92391     -1916.8312      495.44359      4906.0532      2732.2716      0.078093332  
       176  -708.05903      2856.7488     -428.31461      19.916961      614.9968      -1919.8576      598.13931      4898.1957      2681.8375      0.077869605  
       177  -708.05954      2856.7488     -376.19372      148.46175      638.18542     -1915.2283      543.02741      4925.2573      2714.2448      0.067991564  
       178  -708.06012      2856.7488     -468.40481     -79.411242      591.97635     -1917.7795      663.21958      4910.2343      2651.4046      0.069183953  
       179  -708.06061      2856.7488     -306.38022      309.39343      678.03581     -1906.5699      471.19876      4968.1252      2748.8342      0.092712151  
       180  -708.06088      2856.7488     -454.46787     -43.628567      594.48067     -1914.2557      645.34333      4923.7768      2655.4566      0.065402462  
       181  -708.06118      2856.7488     -389.3177       105.17746      636.14392     -1909.2745      569.99664      4949.2583      2691.0177      0.05552743   
       182  -708.06154      2856.7488     -441.67637     -16.739761      601.63731     -1909.9267      626.99599      4934.0347      2656.6049      0.061642059  
       183  -708.062        2856.7488     -359.50815      164.65021      659.19868     -1902.3733      534.1402       4968.3633      2697.1267      0.049210651  
       184  -708.06249      2856.7488     -509.64278     -173.58219      552.92934     -1908.2755      695.48447      4914.418       2608.2013      0.074704579  
       185  -708.06276      2856.7488     -358.96012      159.43474      662.56779     -1898.8829      529.15986      4974.0542      2687.7622      0.048330375  
       186  -708.06303      2856.7488     -434.31912     -7.4538906      606.60805     -1902.1115      607.11142      4945.4904      2644.4201      0.056805616  
       187  -708.0633       2856.7488     -388.02807      89.849314      643.2729      -1897.2064      555.60245      4966.1366      2664.2734      0.047708258  
       188  -708.06372      2856.7488     -451.30338     -49.277652      593.68481     -1898.3173      617.86262      4941.7771      2626.1632      0.057872234  
       189  -708.06411      2856.7488     -327.2455       211.87961      694.12199     -1887.7381      485.07057      4996.1898      2682.8099      0.067500965  
       190  -708.06448      2856.7488     -492.30579     -139.86743      559.66457     -1896.7145      652.87697      4926.8086      2596.534       0.062910432  
       191  -708.06464      2856.7488     -405.76682      41.712299      631.78592     -1890.7987      561.29314      4965.0886      2637.3089      0.047327635  
       192  -708.06488      2856.7488     -412.85712      25.002342      625.86551     -1889.4392      565.54619      4962.8403      2630.3438      0.047731521  
       193  -708.06519      2856.7488     -402.62423      42.537301      635.52695     -1885.9369      551.60075      4969.1647      2629.6439      0.045053018  
       194  -708.06574      2856.7488     -422.67623     -2.6807017      618.51235     -1883.8603      567.07426      4961.6224      2613.8854      0.046939424  
       195  -708.06631      2856.7488     -353.80749      132.48696      680.54406     -1874.4535      492.17963      4996.3884      2635.7469      0.043485354  
       196  -708.06662      2856.7488     -566.7001      -304.09439      490.75575     -1886.7617      703.88367      4896.9354      2537.5583      0.1106889    
       197  -708.06681      2856.7488     -476.62073     -120.22393      571.79114     -1881.4294      609.386        4940.5334      2575.1181      0.052157626  
       198  -708.06697      2856.7488     -361.70903      111.44234      674.85991     -1871.4293      491.56858      4995.9992      2621.1149      0.041704373  
       199  -708.06711      2856.7488     -434.26858     -37.226131      609.87847     -1875.4581      562.59178      4962.0233      2588.1114      0.04420779   
       200  -708.06743      2856.7488     -372.44556      85.616008      666.04838     -1869.0011      498.04305      4992.6276      2609.716       0.040087024  
       201  -708.06765      2856.7488     -453.85013     -81.486633      592.76343     -1872.8272      577.50537      4954.5109      2573.0793      0.045769433  
       202  -708.06794      2856.7488     -332.57198      161.63533      702.55052     -1861.9018      452.71522      5013.8621      2617.0388      0.050522249  
       203  -708.06815      2856.7488     -447.66143     -72.371097      598.85999     -1869.4732      567.19026      4959.1842      2570.0442      0.043459782  
       204  -708.06827      2856.7488     -377.11376      69.182647      662.51086     -1863.0348      493.79358      4993.7093      2594.2268      0.038356658  
       205  -708.06854      2856.7488     -431.00167     -42.424754      614.68768     -1865.2679      546.74616      4968.7352      2571.0928      0.039770859  
       206  -708.06881      2856.7488     -357.99327      103.88258      679.80777     -1857.6702      469.93751      5004.5377      2593.8798      0.039221519  
       207  -708.06899      2856.7488     -470.29444     -127.44426      580.52621     -1863.9653      583.12978      4951.8896      2550.0339      0.044369893  
       208  -708.06923      2856.7488     -351.20223      114.8644       685.70178     -1854.1729      458.91227      5009.2445      2589.5479      0.039129897  
       209  -708.06934      2856.7488     -424.45697     -36.373799      621.55383     -1858.5509      532.92222      4975.0855      2562.3627      0.036394253  
       210  -708.06951      2856.7488     -377.78234      57.616502      662.56195     -1853.5255      483.12868      4997.8059      2574.9265      0.03644323   
       211  -708.06974      2856.7488     -434.74157     -61.896777      613.22659     -1855.5545      540.36888      4971.8372      2553.2864      0.036771212  
       212  -708.06997      2856.7488     -336.64246      138.02445      698.29178     -1846.2436      436.68212      5018.8083      2580.1974      0.041017295  
       213  -708.0702       2856.7488     -463.61766     -125.57623      588.86498     -1854.1417      567.64666      4959.9885      2539.0494      0.039808515  
       214  -708.07033      2856.7488     -382.66258      41.359016      658.36779     -1847.7146      481.68145      4998.2746      2561.3134      0.034874187  
       215  -708.07051      2856.7488     -411.475       -20.429929      634.32126     -1848.3163      510.71616      4985.6117      2551.0469      0.032428732  
       216  -708.0707       2856.7488     -376.79587      50.03393       663.36122     -1843.7828      472.63019      5002.1999      2556.9116      0.034731859  
       217  -708.07102      2856.7488     -440.66555     -86.942252      610.69026     -1845.7447      538.94324      4974.1181      2537.1542      0.034265775  
       218  -708.07125      2856.7488     -310.38194      185.71588      717.68601     -1834.5477      398.75977      5033.8194      2565.3485      0.051886179  
       219  -708.07137      2856.7488     -413.98067     -33.694838      633.33787     -1841.585       508.36732      4987.7601      2539.7635      0.031116961  
       220  -708.07153      2856.7488     -383.5815       30.016216      657.54663     -1838.3073      474.42521      5001.6147      2543.9306      0.033125164  
       221  -708.07169      2856.7488     -411.34539     -31.507826      635.73819     -1838.2665      503.50111      4990.1854      2536.1146      0.030883693  
       222  -708.07202      2856.7488     -360.59509      75.206523      675.70264     -1832.6944      447.41508      5012.9689      2541.8745      0.03408471   
       223  -708.07223      2856.7488     -463.78886     -149.81617      595.4984      -1837.0488      558.99792      4969.3915      2521.512       0.038700716  
       224  -708.07245      2856.7488     -345.24758      106.53482      686.70126     -1828.9788      428.40532      5020.493       2538.399       0.034571808  
       225  -708.07248      2856.7488     -400.19701     -13.952251      645.18742     -1831.8262      487.93047      4997.7752      2529.3677      0.030766313  
       226  -708.07263      2856.7488     -386.01583      16.145718      655.40978     -1829.603       471.50152      5003.9489      2528.9007      0.031488604  
       227  -708.07286      2856.7488     -401.98986     -21.701913      644.29199     -1828.5597      488.81725      4998.318       2525.0095      0.030193205  
       228  -708.07319      2856.7488     -365.60065      57.449332      669.73851     -1823.9898      446.93103      5013.3351      2524.4608      0.032136443  
       229  -708.07337      2856.7488     -454.83408     -146.62478      608.79335     -1826.6708      548.2985       4979.8134      2515.9654      0.032352093  
       230  -708.06773      2856.7488     -335.63357      222.51097      628.57186     -1857.9835      458.63538      5080.5342      2485.9041      0.0506235    
       231  -708.06785      2856.7488     -355.15776      175.39226      615.42398     -1856.2895      485.33283      5069.745       2486.2686      0.045525519  
       232  -708.06798      2856.7488     -377.25273      117.66294      601.99567     -1851.4168      521.09034      5054.0947      2487.8178      0.035600422  
       233  -708.06817      2856.7488     -370.39635      120.96707      611.68658     -1843.8427      524.36865      5047.6214      2489.4425      0.030534974  
       234  -708.06841      2856.7488     -362.61591      122.92519      625.43642     -1836.2093      523.09357      5043.0196      2489.804       0.030062171  
       235  -708.06869      2856.7488     -368.28968      97.384862      628.66609     -1830.92        533.15963      5035.3053      2486.1886      0.029474774  
       236  -708.06905      2856.7488     -353.12615      124.26515      643.08341     -1826.727       516.68303      5037.3547      2485.9222      0.03024176   
       237  -708.06941      2856.7488     -403.48267      3.3396835      611.46477     -1825.2525      575.23487      5016.4299      2475.089       0.026390555  
       238  -708.12484      2856.7488     -251.34742      356.13409      710.96663     -1821.143       421.07617      5070.1122      2475.4419      0.063263532  
       239  -708.12501      2856.7488     -313.85594      220.87937      664.01131     -1826.4585      494.26625      5045.1392      2464.0495      0.03265756   
       240  -708.0699       2856.7488     -384.28661      58.357697      616.54738     -1827.7649      551.8886       5021.03        2470.2894      0.027018411  
       241  -708.0701       2856.7488     -354.45451      100.99542      655.66531     -1820.0243      512.12051      5038.5096      2480.3696      0.029813914  
       242  -708.07026      2856.7488     -385.12044      44.995928      621.99619     -1822.3534      550.45495      5023.0286      2470.5598      0.026880778  
       243  -708.07051      2856.7488     -344.27773      111.69488      669.98877     -1814.5169      493.17677      5045.5601      2481.626       0.030507558  
       244  -708.07071      2856.7488     -400.53201      15.536251      604.40203     -1821.5343      567.47675      5016.0193      2462.4068      0.025060482  
       245  -708.07086      2856.7488     -350.73471      97.404383      663.78653     -1813.395       497.8107       5043.3581      2477.7007      0.029715527  
       246  -708.07098      2856.7488     -380.05507      47.654824      629.00838     -1816.8284      537.44991      5028.0466      2466.9303      0.026784805  
       247  -708.07112      2856.7488     -357.43299      83.193997      656.71813     -1812.2111      504.09726      5040.7098      2473.4202      0.028862567  
       248  -708.07135      2856.7488     -385.70785      35.055076      622.70999     -1814.8886      544.21809      5026.1499      2462.237       0.025878641  
       249  -708.07166      2856.7488     -343.20762      102.13479      675.4711      -1807.2288      480.86842      5049.6368      2475.6722      0.02995351   
       250  -708.07177      2856.7488     -388.46926      28.3702        619.40111     -1813.1791      547.57627      5025.7525      2458.7134      0.02568098   
       251  -708.07188      2856.7488     -359.96494      72.821388      655.57233     -1808.2885      503.39348      5041.583       2468.2839      0.028127892  
       252  -708.07203      2856.7488     -375.99743      46.414065      635.20293     -1809.6093      527.94992      5033.3881      2461.2243      0.026312607  
       253  -708.0723       2856.7488     -357.9342       72.860271      658.89033     -1805.5532      498.63527      5043.5949      2466.7132      0.028063623  
       254  -708.07248      2856.7488     -384.78434      30.114778      623.67186     -1808.1397      542.26108      5029.6906      2454.9314      0.026878776  
       255  -708.07269      2856.7488     -346.76578      86.543835      674.63033     -1801.4715      479.12668      5050.7146      2468.3873      0.031372221  
       256  -708.07286      2856.7488     -374.37909      44.863807      637.21203     -1805.2131      524.8804       5036.2019      2457.042       0.027208857  
       257  -708.07296      2856.7488     -362.83814      60.461048      653.57452     -1802.55        504.20489      5042.9096      2460.7037      0.027153278  
       258  -708.07319      2856.7488     -372.89784      45.364414      638.79958     -1802.8575      522.3939       5037.7332      2455.4179      0.02776829   
       259  -708.07347      2856.7488     -355.98754      67.071687      663.75534     -1798.7896      491.79626      5047.5768      2460.603       0.029135351  
       260  -708.0737       2856.7488     -382.45449      30.664737      623.78315     -1801.8114      541.82442      5033.3628      2448.5908      0.036160428  
       261  -708.07386      2856.7488     -357.65361      62.7917        661.69373     -1797.4462      493.76877      5047.5603      2457.9028      0.029328379  
       262  -708.07398      2856.7488     -369.41929      47.416438      643.0726      -1798.7469      516.8753       5041.4279      2452.4339      0.028924535  
       263  -708.07421      2856.7488     -361.83498      55.724663      655.21812     -1796.4477      501.22766      5045.9599      2454.415       0.028860287  
       264  -708.07445      2856.7488     -370.03851      45.359268      641.1417      -1796.6165      520.18931      5041.84        2449.6707      0.029702463  
       265  -708.07473      2856.7488     -354.16991      62.833103      667.24049     -1792.5833      485.34629      5050.7892      2454.5871      0.031414755  
       266  -708.07487      2856.7488     -374.13237      39.983446      632.99818     -1795.3788      532.74824      5040.5619      2445.6273      0.036186476  
       267  -708.07506      2856.7488     -361.84919      52.905608      654.42647     -1792.8797      502.09758      5047.5281      2449.9879      0.030121167  
       268  -708.0752       2856.7488     -364.72499      49.958531      648.47773     -1792.6112      510.31307      5046.3422      2448.0948      0.030655474  
       269  -708.07544      2856.7488     -360.58764      53.014536      655.88315     -1790.6606      500.4057       5048.8226      2448.1493      0.030689541  
       270  -708.0757       2856.7488     -365.5889       49.120156      644.38274     -1790.2696      517.02663      5046.6413      2445.1669      0.031747974  
       271  -708.11527      2856.7488     -354.26544      74.898115      658.59242     -1796.2868      467.63054      5047.2628      2450.3358      0.043767809  
       272  -708.11546      2856.7488     -371.99708      59.590572      629.45555     -1805.0374      513.32346      5041.0576      2454.3618      0.032802824  
       273  -708.11558      2856.7488     -363.23771      71.101384      641.04359     -1801.8581      488.77504      5044.5119      2447.6757      0.032165354  
       274  -708.11579      2856.7488     -364.40567      69.915463      638.68034     -1801.8128      493.79067      5044.9152      2445.8049      0.032657007  
       275  -708.11604      2856.7488     -362.10461      71.295972      642.37693     -1799.9867      487.98125      5046.4178      2441.7609      0.032750583  
       276  -708.11643      2856.7488     -364.72721      67.071176      638.20092     -1799.4537      501.56257      5047.097       2441.2746      0.033782327  
       277  -708.11685      2856.7488     -355.61383      75.420756      652.85374     -1795.116       471.03925      5049.8991      2433.3679      0.04178763   
       278  -708.07743      2856.7488     -362.35763      71.350407      630.78273     -1789.206       494.71723      5063.6279      2436.8487      0.056808047  
       279  -708.11716      2856.7488     -363.05954      69.751322      636.49662     -1795.4266      506.10676      5049.5442      2435.1542      0.034899073  
       280  -708.11735      2856.7488     -361.36905      66.050926      646.19326     -1796.3513      490.92243      5050.2112      2436.8948      0.034249196  
       281  -708.1175       2856.7488     -361.0591       70.717331      640.52648     -1794.4211      500.78573      5051.0615      2433.9374      0.035190776  
       282  -708.11787      2856.7488     -359.30808      66.672497      649.84606     -1794.4428      486.29986      5051.8605      2434.4968      0.034675175  
       283  -708.07861      2856.7488     -353.59868      85.010027      635.73098     -1781.5371      481.74885      5068.1493      2426.0744      0.037616034  
       284  -708.11844      2856.7488     -351.66152      79.093866      651.75448     -1785.8329      480.13038      5053.7711      2423.8996      0.038608423  
       285  -708.079        2856.7488     -355.50363      72.510836      643.85643     -1782.8781      478.15635      5068.3543      2433.0262      0.036623097  
       286  -708.0792       2856.7488     -346.31321      92.095663      643.30567     -1774.341       465.81113      5069.5857      2418.9997      0.036325253  
       287  -708.07947      2856.7488     -354.0009       72.018139      645.28201     -1779.3028      484.57893      5068.96        2434.6618      0.037181535  
       288  -708.07985      2856.7488     -340.39391      102.7318       644.57082     -1768.4844      464.76063      5071.0066      2414.7638      0.03668835   
       289  -708.08026      2856.7488     -362.13228      48.494084      649.47641     -1784.3673      509.01708      5069.2383      2453.9617      0.042922558  
       290  -708.08048      2856.7488     -335.62867      112.84004      644.42899     -1764.1551      461.14931      5072.4978      2409.4787      0.036948385  
       291  -708.08064      2856.7488     -349.39956      79.242851      646.80125     -1774.2428      486.72474      5071.5342      2432.277       0.038382926  
       292  -708.08091      2856.7488     -344.98298      89.627649      646.25436     -1770.831       479.90122      5072.4823      2425.775       0.038205916  
       293  -708.08125      2856.7488     -348.14666      79.5535        648.73576     -1772.7292      489.09956      5073.0337      2432.7175      0.03915229   
       294  -708.0817       2856.7488     -338.80127      102.36885      647.10231     -1765.875       474.17633      5074.6068      2419.0622      0.038472145  
       295  -708.08206      2856.7488     -354.40874      58.304452      654.85197     -1776.3826      509.64559      5074.4971      2446.7857      0.054014641  
       296  -708.08238      2856.7488     -336.40988      107.71191      647.00628     -1763.9478      473.49349      5076.3137      2416.2549      0.038776591  
       297  -708.08255      2856.7488     -344.16653      86.675139      649.70798     -1768.8827      488.48082      5076.2492      2428.309       0.040334467  
       298  -708.08287      2856.7488     -341.94068      91.903176      649.57125     -1767.2965      485.72311      5077.0466      2425.7109      0.040221635  
       299  -708.08322      2856.7488     -342.53349      88.066233      651.59421     -1767.2609      490.05836      5077.8344      2427.8428      0.041085481  
       300  -708.08371      2856.7488     -337.44481      100.60519      651.2629      -1764.2025      483.71558      5079.3754      2422.1994      0.040542167  
       301  -708.08422      2856.7488     -344.48513      76.347042      657.63388     -1767.4363      503.33486      5079.8069      2434.0434      0.052110842  
       302  -708.08456      2856.7488     -330.25079      119.71853      649.86406     -1760.335       476.09364      5082.0399      2414.2249      0.065636446  
       303  -708.0847       2856.7488     -336.00327      103.85128      650.96599     -1762.8271      484.65051      5081.8639      2420.3099      0.041226878  
       304  -708.085        2856.7488     -339.80688      90.891206      654.29195     -1764.6038      494.69872      5081.8518      2426.4271      0.042983624  
       305  -708.08533      2856.7488     -335.8618       101.62308      653.1412      -1762.3497      488.91584      5083.0941      2421.8623      0.042111717  
       306  -708.08574      2856.7488     -338.7902       90.274843      656.84323     -1763.4887      498.3097       5083.3311      2427.0018      0.044159256  
       307  -708.08615      2856.7488     -330.77368      113.49409      653.68654     -1759.5017      485.56695      5085.7763      2417.6423      0.047051899  
       308  -708.12601      2856.7488     -344.76365      78.43988       659.89025     -1772.6211      533.70619      5069.7457      2431.8117      0.046675226  
       309  -708.08676      2856.7488     -337.3235       96.090674      657.32379     -1765.385       492.78387      5086.1544      2426.6736      0.043384973  
       310  -708.08707      2856.7488     -331.65081      108.14737      654.96558     -1758.0654      491.28252      5087.3232      2415.9146      0.044693963  
       311  -708.08746      2856.7488     -336.39173      94.704123      659.49313     -1763.3724      497.56895      5087.6585      2427.4881      0.043936848  
       312  -708.08795      2856.7488     -326.34043      118.43468      655.0209      -1752.4769      493.81262      5089.3867      2409.6248      0.046298459  
       313  -708.12786      2856.7488     -346.34592      72.380561      667.32504     -1778.7434      534.32484      5074.4983      2444.3618      0.055831695  
       314  -708.12817      2856.7488     -336.16591      100.54401      658.49888     -1767.5406      527.715        5075.772       2420.6654      0.047626763  
       315  -708.12841      2856.7488     -339.91079      91.416157      662.22533     -1773.3739      523.78122      5076.8248      2427.559       0.045019478  
       316  -708.12885      2856.7488     -336.96549      98.861019      660.25336     -1770.0109      522.5143       5077.802       2420.829       0.04658821   
       317  -708.12931      2856.7488     -337.7906       95.015908      664.33881     -1772.7265      518.99817      5079.5781      2423.6979      0.045308701  
       318  -708.12979      2856.7488     -333.02595      106.74809      660.29526     -1766.1212      523.54967      5080.494       2413.5334      0.050188807  
       319  -708.13024      2856.7488     -337.18051      94.455252      668.42026     -1774.417       516.03257      5082.6679      2424.2755      0.062409673  
       320  -708.13047      2856.7488     -334.8056       102.36137      662.21784     -1768.996       522.3483       5082.437       2416.5551      0.047849151  
       321  -708.13083      2856.7488     -334.77981      101.4289       664.0065      -1769.7748      519.97271      5083.5677      2417.157       0.047085812  
       322  -708.13129      2856.7488     -333.23619      104.69099      663.36366     -1767.7632      523.39701      5084.2479      2415.4698      0.048532304  
       323  -708.13189      2856.7488     -332.0099       105.23244      667.81681     -1769.079       519.02328      5086.5345      2416.2674      0.046881189  
       324  -708.13249      2856.7488     -329.68048      111.93855      662.66234     -1763.6423      533.1392       5086.1441      2412.7736      0.067477922  
       325  -708.13292      2856.7488     -330.47506      108.42522      669.4965      -1769.3469      517.87532      5089.3122      2415.2677      0.056728899  
       326  -708.13314      2856.7488     -331.16775      108.49359      665.05057     -1767.0474      525.37613      5088.6565      2414.2707      0.049127629  
       327  -708.13351      2856.7488     -330.26443      109.88935      665.74636     -1766.429       525.65814      5089.5724      2413.6581      0.049353687  
       328  -708.13408      2856.7488     -329.07385      111.8055       666.67373     -1765.7008      526.63209      5090.585       2413.6339      0.049707432  
       329  -708.13475      2856.7488     -326.87599      115.37689      668.63176     -1764.6366      527.62739      5092.4582      2412.3907      0.050115305  
       330  -708.09621      2856.7488     -319.10388      128.62823      668.26637     -1754.2062      498.68562      5108.39        2410.6474      0.050887072  
       331  -708.0973       2856.7488     -303.05005      158.58         667.02849     -1734.7586      502.98298      5114.0556      2386.9449      0.051240642  
       332  -708.13755      2856.7488     -362.29543      23.513503      685.30104     -1795.7008      586.47689      5082.2108      2498.9144      0.14110423   
       333  -708.09858      2856.7488     -314.66701      139.22573      665.30417     -1748.5309      513.01477      5112.6335      2411.0906      0.051868389  
       334  -708.09901      2856.7488     -314.61521      137.22555      666.82064     -1747.8918      512.61321      5112.9948      2410.6924      0.052357572  
       335  -708.09971      2856.7488     -315.21372      135.99368      667.58503     -1749.2199      523.25502      5115.1887      2415.7266      0.052420235  
       336  -708.10044      2856.7488     -310.46576      142.33473      670.44356     -1744.1756      510.28133      5114.0876      2408.2926      0.053341815  
       337  -708.10148      2856.7488     -316.2478       138.71366      667.68597     -1755.143       555.6588       5123.5467      2430.7929      0.052229088  
       338  -708.14163      2856.7488     -297.99315      148.61914      686.29159     -1728.8902      460.22937      5087.6111      2368.7879      0.079854594  
       339  -708.10281      2856.7488     -315.64032      140.32572      667.58612     -1754.8328      543.68485      5124.4732      2427.3599      0.053211751  
       340  -708.10324      2856.7488     -308.78849      149.06303      668.71543     -1744.1439      516.08137      5119.9081      2407.0897      0.05447472   
       341  -708.10379      2856.7488     -312.16083      144.87133      668.09358     -1749.4474      536.20416      5123.7403      2419.3396      0.0540362    
       342  -708.1045       2856.7488     -305.31957      152.70862      672.03206     -1740.6994      513.49239      5120.362       2403.3934      0.055382389  
       343  -708.10545      2856.7488     -314.51359      146.77484      666.95572     -1757.2713      569.39917      5132.7033      2438.5018      0.054051171  
       344  -708.14534      2856.7488     -298.06765      151.92921      684.30251     -1730.4347      489.58152      5096.371       2369.6159      0.07465524   
       345  -708.10651      2856.7488     -308.55553      152.2345       670.4111      -1748.3122      531.67488      5127.2212      2416.2681      0.055420748  
       346  -708.10706      2856.7488     -305.99169      158.17551      668.22087     -1744.3714      532.41075      5128.2578      2410.5199      0.055629442  
       347  -708.10768      2856.7488     -307.46804      152.85974      672.30285     -1747.5667      537.13756      5128.8832      2417.4095      0.055858435  
       348  -708.10865      2856.7488     -301.25701      168.18745      668.1997      -1740.1582      536.7214       5131.3638      2406.6456      0.056191069  
       349  -708.10974      2856.7488     -310.17739      141.71431      684.86899     -1757.1155      543.96962      5130.49        2434.8325      0.056425502  
       350  -708.11075      2856.7488     -279.73119      223.08895      643.26848     -1705.551       540.0891       5138.4084      2361.5993      0.12027129   
       351  -708.11125      2856.7488     -306.22929      153.26596      678.4193      -1750.3731      541.7043       5132.54        2424.0156      0.056868311  
       352  -708.1118       2856.7488     -301.88755      169.52517      666.20412     -1741.392       547.53543      5136.5648      2410.4717      0.05710849   
       353  -708.11247      2856.7488     -303.65602      162.1716       675.98749     -1749.1272      542.48137      5136.0905      2419.3223      0.057198422  
       354  -708.11331      2856.7488     -298.65351      177.56938      663.14709     -1736.677       557.24974      5140.1514      2407.9072      0.057578657  
       355  -708.15352      2856.7488     -310.05642      143.26504      696.56949     -1770.0038      558.34129      5120.6901      2430.9887      0.058872524  
       356  -708.11509      2856.7488     -298.52532      188.34744      641.84746     -1725.7709      593.31836      5146.1139      2404.6563      0.085029239  
       357  -708.15474      2856.7488     -305.44839      163.37748      677.12036     -1756.843       566.34894      5126.3488      2411.6963      0.057775236  
       358  -708.11615      2856.7488     -303.31206      171.08636      669.08501     -1750.1076      556.69299      5144.2321      2420.4467      0.058192193  
       359  -708.15621      2856.7488     -298.59164      176.48499      675.60525     -1747.8652      560.93735      5130.3049      2397.7626      0.058105624  
       360  -708.11797      2856.7488     -316.77682      144.43214      673.19373     -1767.9563      597.47887      5146.3657      2458.5887      0.073920155  
       361  -708.15798      2856.7488     -267.94533      237.20738      672.52436     -1713.5677      494.29677      5135.6303      2330.6232      0.11582989   
       362  -708.11926      2856.7488     -301.87946      172.28643      672.34696     -1750.2718      562.21834      5149.0811      2423.4104      0.058820696  
       363  -708.11981      2856.7488     -294.61541      188.12097      669.53799     -1741.5052      548.80396      5149.833       2404.5332      0.058825356  
       364  -708.12067      2856.7488     -300.05391      175.93948      674.21485     -1750.3161      567.62614      5150.4884      2423.9614      0.059112945  
       365  -708.12175      2856.7488     -287.8248       201.87431      668.66881     -1734.0175      544.70646      5152.234       2393.9839      0.05898208   
       366  -708.12294      2856.7488     -309.54366      154.91383      686.23739     -1769.7822      606.79412      5153.3577      2467.6739      0.0909825    
       367  -708.16291      2856.7488     -273.138        231.47762      652.86771     -1703.7593      528.68573      5140.7454      2330.7125      0.14869467   
       368  -708.16336      2856.7488     -294.37855      193.01432      664.81963     -1740.9696      572.66496      5140.8853      2388.5258      0.059021767  
       369  -708.12482      2856.7488     -301.35252      179.37719      676.6505      -1760.0853      577.75949      5156.3726      2438.2662      0.061704768  
       370  -708.16462      2856.7488     -294.88452      191.04991      665.46124     -1741.1647      581.78129      5143.4927      2392.0683      0.059312028  
       371  -708.12629      2856.7488     -302.71945      177.72917      681.63267     -1767.5202      581.43451      5157.7673      2448.3421      0.076560799  
       372  -708.16609      2856.7488     -291.91092      196.77816      661.10638     -1733.6173      581.20367      5146.4597      2382.4468      0.068237394  
       373  -708.12763      2856.7488     -299.54187      185.52837      679.27988     -1763.4338      575.297        5159.513       2439.7352      0.064019045  
       374  -708.16735      2856.7488     -296.76499      188.37651      664.51653     -1743.188       593.74897      5148.0946      2397.2574      0.059810047  
       375  -708.12902      2856.7488     -297.49582      191.8444       679.44094     -1763.7728      571.71127      5161.33        2436.3691      0.064747801  
       376  -708.16881      2856.7488     -294.68508      191.83395      661.10829     -1736.9975      597.058        5150.899       2390.8683      0.060761138  
       377  -708.13049      2856.7488     -297.19333      193.7748       682.88435     -1768.2391      572.28123      5162.3915      2442.0343      0.077777063  
       378  -708.1702       2856.7488     -296.57995      189.30638      661.55708     -1740.6033      602.79486      5152.6249      2396.625       0.060183939  
       379  -708.17092      2856.7488     -303.04105      182.98404      680.31196     -1772.4191      602.22722      5150.1726      2433.136       0.061854674  
       380  -708.17166      2856.7488     -297.92398      190.2448       662.83163     -1746.8484      603.07098      5155.0779      2401.2088      0.060356889  
       381  -708.17265      2856.7488     -300.04231      192.52663      685.41814     -1778.0717      594.00186      5151.9761      2435.2205      0.066680466  
       382  -708.17352      2856.7488     -298.45971      185.41841      654.51031     -1735.3078      614.77941      5159.159       2391.8698      0.071806396  
       383  -708.13515      2856.7488     -287.89452      220.61922      685.29142     -1769.5942      552.13012      5168.2068      2432.0114      0.080207987  
       384  -708.17483      2856.7488     -300.80814      182.84315      661.48645     -1746.754       617.57784      5159.404       2405.5632      0.060489998  
       385  -708.13648      2856.7488     -289.36541      217.09187      676.33335     -1761.5214      562.90525      5171.7099      2423.7522      0.067423621  
       386  -708.13729      2856.7488     -291.0189       202.25946      658.68257     -1733.9987      590.46882      5176.8509      2403.23        0.062006854  
       387  -708.1382       2856.7488     -286.16607      224.31785      682.98464     -1765.8007      562.64234      5171.6294      2431.0774      0.069559044  
       388  -708.13915      2856.7488     -295.01653      188.55567      650.23527     -1723.8405      615.99255      5179.9884      2403.3537      0.070772749  
       389  -708.13991      2856.7488     -282.35874      235.10283      682.64989     -1764.8289      555.97576      5172.6161      2427.9607      0.070260515  
       390  -708.14065      2856.7488     -295.92874      192.60662      656.65921     -1737.0521      611.80938      5180.1645      2415.9932      0.06251044   
       391  -708.14149      2856.7488     -281.74283      236.95092      677.88626     -1760.0657      559.66245      5175.9667      2422.0351      0.069381903  
       392  -708.14244      2856.7488     -300.62554      179.80682      652.80108     -1734.4845      632.23937      5183.3834      2421.195       0.061514294  
       393  -708.1434       2856.7488     -269.30858      271.35818      688.96757     -1768.2515      524.21658      5174.7408      2418.525       0.073309372  
       394  -708.18314      2856.7488     -317.07611      140.58961      649.49111     -1741.309       691.24065      5171.1791      2429.2471      0.062376105  
       395  -708.14485      2856.7488     -279.7778       246.79499      676.11756     -1762.2459      553.8093       5179.5333      2420.4715      0.070358415  
       396  -708.18452      2856.7488     -305.5721       176.52671      659.07742     -1752.3204      649.0336       5171.26        2422.5478      0.060636778  
       397  -708.14637      2856.7488     -280.33274      249.32698      676.88546     -1767.2107      553.44612      5181.5733      2424.3745      0.071324025  
       398  -708.18629      2856.7488     -308.20605      163.43703      652.56428     -1740.6195      667.42188      5175.6723      2417.0071      0.0652365    
       399  -708.14814      2856.7488     -277.52993      259.75819      681.16373     -1773.5117      543.69266      5181.3604      2428.3115      0.079768419  
       400  -708.18786      2856.7488     -304.85396      178.62688      657.04245     -1750.2312      649.33172      5175.5234      2418.9689      0.061485302  
       401  -708.18858      2856.7488     -293.18041      221.71165      674.09903     -1775.3519      599.73219      5171.6811      2425.537       0.067255148  
       402  -708.18944      2856.7488     -305.33725      181.44525      657.13703     -1754.594       647.4093       5178.278       2420.6937      0.061406079  
       403  -708.19056      2856.7488     -283.2282       250.99435      682.7288      -1783.4078      568.63448      5172.0433      2421.2684      0.070505069  
       404  -708.19155      2856.7488     -318.58394      139.99313      645.15776     -1740.9027      697.17562      5183.8028      2426.1527      0.07324501   
       405  -708.19233      2856.7488     -281.74866      255.15506      680.15103     -1780.5521      563.63779      5173.744       2415.3471      0.070477836  
       406  -708.19299      2856.7488     -309.39412      175.33217      655.90361     -1759.4181      656.42966      5182.5092      2427.3421      0.06188563   
       407  -708.1939       2856.7488     -285.61308      245.02841      674.29529     -1776.1629      577.70134      5178.2247      2413.6108      0.068940736  
       408  -708.19495      2856.7488     -317.8525       151.21011      651.2544      -1756.022       688.72159      5186.8048      2436.2068      0.06212322   
       409  -708.15703      2856.7488     -252.12178      333.04862      687.27477     -1776.6887      471.34166      5190.0064      2397.1802      0.08843452   
       410  -708.19684      2856.7488     -324.68444      128.18061      647.17106     -1749.405       716.69421      5189.1739      2441.5152      0.06622736   
       411  -708.15847      2856.7488     -279.93805      257.93476      666.86856     -1764.6175      559.67436      5197.2961      2418.1968      0.07183076   
       412  -708.19827      2856.7488     -307.46487      180.7619       656.18089     -1759.3374      657.70779      5188.0602      2426.856       0.06305287   
       413  -708.1603       2856.7488     -277.26635      270.65533      670.09591     -1772.5503      551.95682      5198.0922      2424.1321      0.073486226  
       414  -708.20029      2856.7488     -315.559        147.97875      647.52586     -1742.1816      695.60496      5193.1449      2425.615       0.075079619  
       415  -708.16213      2856.7488     -271.757        290.04976      674.69551     -1780.0163      534.17737      5196.728       2428.0253      0.085191279  
       416  -708.20173      2856.7488     -307.19722      182.83105      654.27241     -1758.6951      656.68801      5191.2752      2426.5167      0.063861724  
       417  -708.16358      2856.7488     -283.53985      256.09289      662.8041      -1769.5165      571.76267      5203.0327      2428.7335      0.072013326  
       418  -708.20348      2856.7488     -308.08885      176.37207      652.9478      -1753.5864      664.3727       5194.4155      2423.941       0.064758261  
       419  -708.1656       2856.7488     -275.62032      286.59671      670.48138     -1783.939       545.48136      5201.4386      2436.2005      0.089818688  
       420  -708.20537      2856.7488     -313.21308      157.06944      647.18654     -1743.8952      681.97233      5197.3484      2422.4036      0.073413401  
       421  -708.16711      2856.7488     -283.45284      259.95133      661.61497     -1771.9248      571.06515      5205.9153      2432.6028      0.072545379  
       422  -708.2068       2856.7488     -307.59597      184.13862      652.56514     -1759.4917      655.70308      5196.8078      2426.1422      0.065092661  
       423  -708.16881      2856.7488     -281.87246      268.9754       663.01885     -1777.6116      565.38536      5207.4747      2436.1441      0.073335357  
       424  -708.20876      2856.7488     -313.15381      159.35316      646.9267      -1745.7413      678.78895      5200.6109      2422.1774      0.073247358  
       425  -708.1707       2856.7488     -277.64795      285.41265      665.79189     -1784.1484      551.77329      5207.2009      2440.3373      0.086337026  
       426  -708.21032      2856.7488     -310.25669      178.23487      649.40381     -1758.4088      660.24676      5200.1066      2427.626       0.065783889  
       427  -708.17221      2856.7488     -284.58516      262.74073      658.77187     -1775.2681      572.26403      5211.8109      2436.2087      0.072360109  
       428  -708.21201      2856.7488     -311.82478      171.96125      648.22311     -1755.6587      666.2816       5202.5024      2426.6872      0.066378503  
       429  -708.12473      2856.7488     -294.28298      297.22738      616.00321     -1796.0795      557.17968      5240.3403      2398.0779      0.086461798  
       430  -708.16329      2856.7488     -309.8155       219.69654      607.56426     -1756.7073      676.38181      5230.2134      2380.9722      0.067471741  
       431  -708.12631      2856.7488     -275.92857      328.59618      621.16105     -1777.543       564.8188       5234.5029      2401.3734      0.071728844  
       432  -708.16497      2856.7488     -304.29106      222.40709      617.04804     -1752.3283      656.07625      5225.1761      2399.9896      0.067610108  
       433  -708.12818      2856.7488     -271.61619      333.52859      632.10069     -1780.4778      538.77022      5229.6833      2425.4185      0.077847829  
       434  -708.16678      2856.7488     -306.86488      205.29778      620.40283     -1746.2952      649.95727      5222.9741      2415.1308      0.068445322  
       435  -708.1298       2856.7488     -274.31839      320.31806      633.28204     -1776.5553      536.61556      5229.6817      2435.7333      0.072009299  
       436  -708.16833      2856.7488     -305.16575      213.71606      624.29383     -1753.5071      632.15688      5221.3017      2426.1964      0.067762036  
       437  -708.13148      2856.7488     -275.08141      317.74889      634.96228     -1777.9554      530.69005      5230.1607      2443.6498      0.071794181  
       438  -708.17014      2856.7488     -308.9224       198.01343      623.77054     -1748.5512      635.92988      5222.1373      2430.6268      0.068657157  
       439  -708.13322      2856.7488     -274.25561      321.94219      636.52297     -1781.232       521.09366      5230.1636      2450.3608      0.07710672   
       440  -708.17169      2856.7488     -309.37806      200.13191      624.82792     -1753.094       627.84914      5222.2797      2435.941       0.068203379  
       441  -708.13478      2856.7488     -278.31971      309.02051      634.05854     -1778.0382      526.71019      5232.2323      2450.955       0.071035997  
       442  -708.17337      2856.7488     -311.29366      194.51642      625.04756     -1753.445       627.48506      5223.473       2438.1931      0.068320395  
       443  -708.13647      2856.7488     -276.92621      316.63722      635.43039     -1782.8462      517.48389      5232.7877      2455.1769      0.076226541  
       444  -708.17506      2856.7488     -314.48303      184.32652      624.01089     -1751.7865      630.91888      5224.8544      2439.5052      0.06868398   
       445  -708.13809      2856.7488     -280.18062      307.08575      632.94915     -1780.5768      521.45727      5234.459       2455.1596      0.070737796  
       446  -708.17661      2856.7488     -314.44778      188.24469      625.00915     -1756.5972      624.8218       5225.8183      2442.142       0.068033797  
       447  -708.13977      2856.7488     -280.85391      307.20012      632.67687     -1782.4387      518.96408      5235.8966      2456.513       0.07055897   
       448  -708.17842      2856.7488     -318.2135       175.32183      623.5405      -1753.5028      631.44783      5227.5156      2442.2831      0.068562229  
       449  -708.14146      2856.7488     -280.98622      308.90972      632.2855      -1784.1539      515.25524      5237.0019      2457.9408      0.072969107  
       450  -708.17998      2856.7488     -318.78747      177.54757      623.40197     -1757.312       626.97342      5228.3794      2444.3201      0.067980627  
       451  -708.14302      2856.7488     -283.78738      300.65585      630.66196     -1782.68        519.15232      5239.0155      2457.4385      0.069695078  
       452  -708.1816       2856.7488     -321.0067       171.41069      622.77685     -1757.2076      629.21067      5229.8155      2444.9309      0.067988459  
       453  -708.1447       2856.7488     -282.89107      306.67138      630.63073     -1785.9753      512.62713      5239.9325      2459.2612      0.073478329  
       454  -708.18322      2856.7488     -323.3791       165.13954      621.84277     -1757.1196      631.28328      5231.1266      2445.8615      0.067963721  
       455  -708.14626      2856.7488     -285.52639      298.99492      628.88207     -1784.4562      516.00451      5241.6894      2458.8553      0.069085444  
       456  -708.18477      2856.7488     -323.96571      166.52723      621.69225     -1760.1166      627.99466      5232.1955      2447.2831      0.067405984  
       457  -708.14782      2856.7488     -285.85819      300.40095      628.30497     -1786.2805      512.8474       5242.9309      2459.7935      0.068867793  
[...]
      1359  -708.3744       2856.7488     -209.10816      204.67628      528.12641     -1360.1272      703.35414      5335.2497      2658.1596      0.013953817  
      1360  -708.37448      2856.7488     -209.10368      204.81753      527.43045     -1359.559       702.84006      5336.2369      2657.5891      0.013956859  
      1361  -708.37461      2856.7488     -207.30939      206.63439      530.4301      -1358.9926      706.1572       5332.9307      2657.9644      0.013924189  
      1362  -708.37462      2856.7488     -210.41027      203.64969      523.24088     -1358.1214      697.32832      5342.8731      2654.9974      0.044934532  
      1363  -708.37474      2856.7488     -208.18323      205.98102      528.10715     -1358.6378      704.38122      5335.663       2656.8827      0.013890362  
      1364  -708.37471      2856.7488     -207.56231      206.3362       529.28596     -1358.3091      705.021        5335.1109      2656.7122      0.013853347  
      1365  -708.3748       2856.7488     -207.68314      206.84128      528.0536      -1357.9443      704.72724      5335.5263      2656.4091      0.013860607  
      1366  -708.37489      2856.7488     -206.3182       207.31488      531.04173     -1357.3112      706.58997      5334.3899      2656.3015      0.013785738  
      1367  -708.37496      2856.7488     -208.31344      207.84293      524.12583     -1356.9091      702.55074      5337.5577      2655.1171      0.017955267  
      1368  -708.37504      2856.7488     -201.31648      208.65728      543.37583     -1355.9825      715.81527      5328.252       2657.2599      0.047252475  
      1369  -708.37509      2856.7488     -204.09039      208.20403      535.86824     -1356.3435      710.4725       5332.2648      2656.0121      0.019894988  
      1370  -708.37507      2856.7488     -207.03198      208.47432      526.76592     -1356.3362      704.21456      5336.7703      2654.6606      0.01583607   
      1371  -708.37511      2856.7488     -205.14026      208.65952      531.97797     -1356.0583      708.98331      5333.5983      2655.4755      0.013697701  
      1372  -708.37514      2856.7488     -206.34521      208.93425      527.76632     -1355.7362      704.61483      5336.7539      2654.1775      0.015799315  
      1373  -708.37524      2856.7488     -204.28837      209.48239      533.1255      -1355.473       711.23203      5332.1956      2655.527       0.017762927  
      1374  -708.37533      2856.7488     -206.00953      209.55939      527.43119     -1355.0192      702.99977      5338.1978      2653.0027      0.022269014  
      1375  -708.37538      2856.7488     -204.51134      209.76359      531.84743     -1355.145       710.53097      5333.1003      2654.9736      0.013648847  
      1376  -708.37542      2856.7488     -205.05931      209.98348      529.56814     -1354.7296      706.07006      5336.2248      2653.4211      0.014874963  
      1377  -708.37545      2856.7488     -204.22356      210.2623       531.66582     -1354.5988      710.81244      5333.0782      2654.5329      0.013626396  
      1378  -708.37548      2856.7488     -204.61381      210.79072      529.3305      -1353.9626      704.67844      5337.5412      2652.3388      0.017810867  
      1379  -708.37552      2856.7488     -203.47223      210.84324      532.91946     -1354.1794      714.09419      5331.1089      2654.9162      0.022762729  
      1380  -708.37556      2856.7488     -204.04827      211.07634      530.37086     -1353.592       706.28401      5336.7869      2652.2599      0.015917713  
      1381  -708.3756       2856.7488     -203.5665       211.28656      531.71369     -1353.6997      711.17742      5333.3688      2653.6005      0.013579254  
      1382  -708.37563      2856.7488     -203.56208      211.74382      530.67716     -1353.1072      707.14285      5336.2382      2652.063       0.015199381  
      1383  -708.37572      2856.7488     -202.98134      211.83424      532.41786     -1353.1961      713.60049      5332.1284      2653.7468      0.015953984  
      1384  -708.37575      2856.7488     -203.00558      212.62745      530.55806     -1352.2022      704.45431      5338.3345      2650.4867      0.0243821    
      1385  -708.3758       2856.7488     -202.71883      212.19606      532.40936     -1352.7619      713.47619      5332.4968      2653.1997      0.013512198  
      1386  -708.37584      2856.7488     -202.71499      212.66406      531.38114     -1352.1902      708.46281      5335.861       2651.3149      0.014617282  
      1387  -708.37587      2856.7488     -202.31839      212.99676      532.27143     -1352.2234      712.8095       5333.158       2652.4818      0.013491888  
      1388  -708.3759       2856.7488     -202.17447      213.15796      531.76171     -1351.4431      707.57595      5336.848       2650.3735      0.016584583  
      1389  -708.376        2856.7488     -201.60401      213.92908      533.11258     -1351.8537      716.5179       5330.7685      2653.0402      0.023078451  
      1390  -708.37597      2856.7488     -201.76985      213.62331      531.98136     -1350.9142      707.55027      5337.2761      2649.7644      0.017757685  
      1391  -708.37608      2856.7488     -201.55323      214.04621      532.56321     -1351.2691      713.3873       5333.2301      2651.5588      0.013437699  
      1392  -708.37611      2856.7488     -201.35904      214.1751       532.43888     -1350.6911      710.08134      5335.65        2650.1726      0.014384047  
      1393  -708.37615      2856.7488     -200.97525      214.77502      533.0855      -1350.7863      714.75261      5332.5532      2651.4071      0.013401524  
      1394  -708.37623      2856.7488     -200.78332      214.67411      532.6588      -1349.6829      707.58113      5337.8575      2648.5398      0.02186274   
      1395  -708.37621      2856.7488     -200.47509      215.5763       533.48888     -1350.4904      718.01897      5330.4828      2651.8302      0.023578671  
      1396  -708.37631      2856.7488     -200.50151      215.17443      533.11596     -1349.7949      711.5495       5335.2565      2649.4437      0.013694032  
      1397  -708.37629      2856.7488     -200.24564      215.69906      533.31753     -1349.7535      714.04404      5333.6261      2650.0679      0.013350741  
      1398  -708.37638      2856.7488     -200.00816      215.92453      533.21075     -1349.1598      711.57412      5335.4194      2648.878       0.014180237  
      1399  -708.37647      2856.7488     -199.47964      216.55559      534.20698     -1349.2015      717.30615      5331.8558      2650.3504      0.014978483  
      1400  -708.37655      2856.7488     -199.43337      216.4366       533.15782     -1347.8945      706.44104      5339.3069      2646.2552      0.031997814  
      1401  -708.37653      2856.7488     -199.1628       217.02197      534.22012     -1348.7305      716.30276      5332.7198      2649.4079      0.013259608  
      1402  -708.37664      2856.7488     -199.14232      216.93645      533.90693     -1348.2703      713.02838      5335.1514      2648.0806      0.013689461  
      1403  -708.37661      2856.7488     -198.82623      217.40998      534.29603     -1348.1847      716.09347      5333.1265      2648.7869      0.013234783  
      1404  -708.3767       2856.7488     -198.45567      218.05864      534.02356     -1347.4492      711.65514      5336.2184      2646.9482      0.015987109  
      1405  -708.37678      2856.7488     -198.22816      217.70275      535.40891     -1347.7961      721.45737      5330.1336      2649.7717      0.025457845  
      1406  -708.37676      2856.7488     -198.04108      218.68839      534.00092     -1346.8126      710.18456      5337.3819      2645.7505      0.021193794  
      1407  -708.37681      2856.7488     -197.9844       218.40553      534.86389     -1347.2226      716.31523      5333.6562      2647.6412      0.013163936  
      1408  -708.37684      2856.7488     -197.81949      218.77301      534.61584     -1346.8473      714.86066      5334.5985      2646.8898      0.013156555  
      1409  -708.37687      2856.7488     -197.3751       219.16184      535.33775     -1346.6249      717.233        5333.3844      2647.3795      0.013124577  
      1410  -708.37701      2856.7488     -197.24941      219.48636      534.60897     -1345.8436      713.25203      5335.7207      2645.4601      0.015806369  
      1411  -708.37697      2856.7488     -196.22004      220.37836      537.21708     -1346.2556      724.35567      5329.7865      2648.9793      0.030889242  
      1412  -708.37707      2856.7488     -196.77085      220.1146       534.84308     -1345.2702      712.00166      5336.9279      2644.2021      0.019907851  
      1413  -708.37718      2856.7488     -196.63644      220.20615      535.50226     -1345.6177      717.08066      5333.9533      2645.9005      0.013050425  
      1414  -708.37716      2856.7488     -196.28723      220.6994       535.77401     -1345.3351      717.0241       5334.1183      2645.6566      0.013036568  
      1415  -708.37725      2856.7488     -196.07892      220.80913      535.97925     -1345.0251      717.63947      5333.9684      2645.4438      0.013012482  
      1416  -708.37732      2856.7488     -195.54218      221.79321      536.00366     -1344.4234      717.33321      5334.1026      2644.9201      0.012982827  
      1417  -708.37739      2856.7488     -195.44744      221.03721      536.80235     -1344.1819      719.81925      5333.4484      2645.0476      0.012944068  
      1418  -708.37745      2856.7488     -193.09656      226.82103      536.20028     -1342.311       712.4457       5336.2509      2642.254       0.028097293  
      1419  -708.37754      2856.7488     -196.70154      216.08626      538.73656     -1344.9274      730.62374      5329.2762      2647.033       0.050632667  
      1420  -708.37754      2856.7488     -197.05109      215.89159      538.07692     -1345.1218      730.80934      5329.2117      2647.0512      0.050632805  
      1421  -708.37754      2856.7488     -195.756        219.28107      537.67172     -1344.2208      724.91682      5331.7709      2645.301       0.025114464  
      1422  -708.37758      2856.7488     -193.85386      224.40553      536.84374     -1342.8108      716.60212      5335.2329      2642.6956      0.015582366  
      1423  -708.37762      2856.7488     -194.37186      222.85503      537.23516     -1343.2058      720.91266      5333.0976      2643.7383      0.012847355  
      1424  -708.37765      2856.7488     -193.79         224.0192       537.09759     -1342.4868      718.02608      5335.0289      2642.5651      0.014458652  
      1425  -708.37768      2856.7488     -193.86787      223.40022      537.75313     -1342.757       722.77076      5332.005       2643.6129      0.01386957   
      1426  -708.37777      2856.7488     -192.8873       225.29018      537.48653     -1341.4386      715.32006      5337.3804      2640.9812      0.025007003  
      1427  -708.37781      2856.7488     -193.41745      224.04801      538.10208     -1342.4024      723.67801      5331.5258      2643.2595      0.016248478  
      1428  -708.37785      2856.7488     -193.07182      224.80507      537.69363     -1341.7142      719.19642      5334.9825      2641.7047      0.013957025  
      1429  -708.37789      2856.7488     -192.94536      224.8099       538.12206     -1341.7681      722.11975      5332.873       2642.3439      0.012735787  
      1430  -708.37791      2856.7488     -192.53158      225.50443      537.95428     -1341.0534      718.77843      5335.5957      2640.914       0.015177337  
      1431  -708.378        2856.7488     -192.30742      225.4685       539.03185     -1341.4226      725.66245      5330.5947      2642.697       0.020396548  
      1432  -708.37809      2856.7488     -191.97286      226.26029      538.02082     -1340.1997      716.11999      5338.0783      2639.3431      0.026306109  
      1433  -708.37808      2856.7488     -191.99644      226.10215      538.72707     -1340.8185      722.3693       5333.3697      2641.1177      0.012662778  
      1434  -708.37812      2856.7488     -191.87629      226.33059      538.4828      -1340.4423      721.34555      5334.3005      2640.5622      0.01265537   
      1435  -708.37814      2856.7488     -191.43921      226.78153      539.20716     -1340.3063      723.01019      5333.1463      2640.6631      0.012622993  
      1436  -708.37822      2856.7488     -191.30647      227.02326      538.56545     -1339.5081      720.45564      5335.5174      2639.455       0.015202527  
      1437  -708.3783       2856.7488     -190.14663      228.38423      541.22014     -1340.0443      728.19222      5329.4589      2641.2673      0.028009798  
      1438  -708.37833      2856.7488     -190.98997      227.34895      538.3267      -1338.6456      717.86851      5338.0523      2637.8817      0.026857508  
      1439  -708.37839      2856.7488     -190.77879      227.74319      539.07928     -1339.1589      721.69826      5335.0082      2638.937       0.014050881  
      1440  -708.37843      2856.7488     -190.32565      228.32294      539.94095     -1339.2408      724.25483      5333.0899      2639.4475      0.012526263  
      1441  -708.37846      2856.7488     -190.25227      228.30499      539.58248     -1338.6443      722.21142      5334.9316      2638.5143      0.013914909  
      1442  -708.37854      2856.7488     -189.6548       229.26319      540.59906     -1338.8267      726.4865       5331.5972      2639.3601      0.013380259  
      1443  -708.37862      2856.7488     -189.6759       228.75522      539.62693     -1337.4099      718.63627      5338.5029      2636.599       0.028421606  
      1444  -708.37861      2856.7488     -189.30105      229.65035      540.95756     -1338.5111      727.35887      5331.3227      2638.9613      0.015137343  
      1445  -708.37865      2856.7488     -189.35206      229.57375      540.26408     -1337.894       723.26483      5334.7397      2637.5353      0.013332506  
      1446  -708.37862      2856.7488     -189.08854      230.0157       540.62756     -1337.9089      725.68715      5332.9547      2638.0023      0.012413407  
      1447  -708.37877      2856.7488     -188.74659      230.11351      540.89066     -1337.244       723.08232      5335.451       2636.7936      0.014450259  
      1448  -708.37879      2856.7488     -188.46102      231.0656       541.08844     -1337.5371      729.10067      5330.3361      2638.2372      0.018523113  
      1449  -708.37882      2856.7488     -187.98913      230.53423      541.63629     -1336.1379      719.0282       5339.6157      2634.7168      0.031284035  
      1450  -708.37893      2856.7488     -188.10297      231.22393      541.36065     -1336.8935      725.42306      5334.0129      2636.5855      0.012340555  
      1451  -708.37891      2856.7488     -188.02357      231.28953      541.34327     -1336.7035      725.89419      5333.7796      2636.4187      0.01232401   
      1452  -708.37899      2856.7488     -187.5328       231.95361      541.78148     -1336.3335      725.7173       5334.0734      2636.0726      0.01230061   
      1453  -708.37907      2856.7488     -187.30744      232.30169      541.73383     -1335.9578      726.79614      5333.4445      2635.7048      0.012269575  
      1454  -708.37914      2856.7488     -186.35078      233.19609      543.04359     -1335.292       725.25538      5335.1454      2635.1259      0.012237434  
      1455  -708.37925      2856.7488     -187.23611      233.28599      540.16968     -1335.164       733.09136      5328.958       2635.1972      0.012175258  
      1456  -708.37936      2856.7488     -180.29086      236.79247      554.687       -1332.3521      700.9693       5355.1212      2631.2814      0.020188072  
      1457  -708.37937      2856.7488     -197.14585      229.90976      516.65824     -1338.0055      796.29932      5281.7352      2641.2325      0.052873056  
      1458  -708.37943      2856.7488     -197.65503      229.54687      515.90387     -1338.4158      796.40859      5281.733       2641.2141      0.052872433  
      1459  -708.37937      2856.7488     -192.48856      231.91881      527.29775     -1336.6822      766.97438      5303.6972      2637.6073      0.02891403   
      1460  -708.37941      2856.7488     -183.21622      236.07308      547.82339     -1333.5451      716.64417      5342.0549      2631.5509      0.014524866  
      1461  -708.37945      2856.7488     -185.54275      234.87653      542.63777     -1334.1426      731.46732      5332.098       2633.6549      0.012079366  
      1462  -708.37949      2856.7488     -184.43839      235.70125      544.64955     -1333.666       725.65338      5335.779       2632.296       0.012604409  
      1463  -708.37957      2856.7488     -185.23479      235.51655      542.39656     -1333.6175      733.998        5330.8949      2633.6281      0.012037899  
      1464  -708.37965      2856.7488     -182.47702      237.42959      547.78261     -1332.6433      717.33883      5340.9175      2629.6184      0.016322147  
      1465  -708.37973      2856.7488     -186.9329       234.85684      537.91984     -1333.5754      753.50195      5320.3283      2637.1376      0.032820294  
      1466  -708.37972      2856.7488     -183.9296       236.84837      544.21549     -1332.8527      729.69782      5333.7356      2631.5288      0.011974369  
      1467  -708.37982      2856.7488     -183.63294      236.901        544.90084     -1332.7007      729.78         5334.2727      2631.5501      0.011959886  
      1468  -708.37978      2856.7488     -183.36903      237.85643      544.35016     -1332.3137      729.94222      5333.6494      2630.9459      0.011966877  
      1469  -708.37986      2856.7488     -182.73841      237.42949      546.48631     -1332.131       730.56412      5334.816       2631.1807      0.011907655  
      1470  -708.37999      2856.7488     -182.90619      240.40745      541.95269     -1331.0787      729.78068      5332.0153      2628.9468      0.015085817  
      1471  -708.38011      2856.7488     -180.48087      234.14707      556.98916     -1332.5788      734.49747      5339.6732      2633.9568      0.035674033  
      1472  -708.38009      2856.7488     -182.25939      241.03378      542.876       -1330.688       729.22892      5333.2359      2627.8648      0.01649455   
      1473  -708.38008      2856.7488     -182.08226      239.30037      545.71083     -1331.258       731.53964      5333.9158      2629.4527      0.011812526  
      1474  -708.38018      2856.7488     -181.59923      239.82639      546.40985     -1331.0339      731.2373       5334.3065      2629.1554      0.011796202  
      1475  -708.38026      2856.7488     -181.69088      239.88117      545.8295      -1330.7833      732.10109      5333.9682      2628.9498      0.011778908  
      1476  -708.38028      2856.7488     -180.4821       241.15374      547.68457     -1330.2846      731.10443      5334.5771      2628.2248      0.011985825  
      1477  -708.38041      2856.7488     -181.97048      239.93415      544.30646     -1330.152       735.35266      5332.9303      2628.7042      0.011780886  
      1478  -708.38046      2856.7488     -174.48497      247.42228      557.51252     -1328.3897      721.62297      5339.1001      2624.5695      0.022156057  
      1479  -708.38054      2856.7488     -191.94953      229.89369      525.78393     -1331.5262      760.36643      5322.2819      2633.9509      0.055166279  
      1480  -708.38054      2856.7488     -192.3513       229.6302       525.10324     -1331.7873      760.55557      5322.2374      2633.9437      0.055166551  
      1481  -708.38053      2856.7488     -186.77601      235.25098      53