LAMMPS data file via write_data, version 23 Jun 2022, timestep = 1658

136 atoms
4 atom types

0 11.653509596413 xlo xhi
0 10.09223535374 ylo yhi
0 24.290024512877 zlo zhi
0 0 0 xy xz yz

Masses

1 1.0078
2 14.0067
3 18.9984
4 28.0855

Atoms # atomic

1 1 2.913377399103 9.378897463144 3.804309529455 0 0 0
2 1 8.74013219731 9.378897463144 3.804309529455 0 0 0
3 1 0 4.332779786275001 3.804309529455 0 0 0
4 1 5.826754798206999 4.332779786275001 3.804309529455 0 0 0
5 1 4.985498405915 9.606535749193 0.5 0 0 0
6 1 10.812253204122 9.606535749193 0.5 0 0 0
7 1 2.072121006812 4.560418072323 0.5 0 0 0
8 1 7.898875805019 4.560418072323 0.5 0 0 0
9 1 0 0 1.866758950347 0 0 0
10 1 5.826754798206999 0 1.866758950347 0 0 0
11 1 2.913377399103 5.04611767687 1.866758950347 0 0 0
12 1 8.74013219731 5.04611767687 1.866758950347 0 0 0
13 1 1.9618106003574886e-05 10.09222657571046 6.701980215265226 0 -1 0
14 1 5.826768852086747 4.845992392239257e-06 6.7019835516017405 0 0 0
15 1 2.913345300194283 5.046119365604479 6.7019796672531715 0 0 0
16 1 8.740114676098129 5.046108014468036 6.701980257565381 0 0 0
17 1 0.8412563922910001 9.606535749193 0.5 0 0 0
18 1 6.668011190498 9.606535749193 0.5 0 0 0
19 1 3.7546337913949994 4.560418072323 0.5 0 0 0
20 1 9.581388589601 4.560418072323 0.5 0 0 0
21 1 2.913377399103 8.410196128116 2.432163375632 0 0 0
22 1 8.74013219731 8.410196128116 2.432163375632 0 0 0
23 1 0 3.364078451247001 2.432163375632 0 0 0
24 1 5.826754798206999 3.364078451247001 2.432163375632 0 0 0
25 1 3.152297526578727 4.101703457902174 5.339641920447307 0 0 0
26 1 8.979045108776011 4.1017054586890085 5.339630434969362 0 0 0
27 1 0.23891394318812742 9.147820654376028 5.339626539751599 0 0 0
28 1 6.065670418886698 9.147822028080338 5.339640016858162 0 0 0
29 1 3.752297363918 7.925845460602003 3.804309529455 0 0 0
30 1 9.579052162124 7.925845460602003 3.804309529455 0 0 0
31 1 0.838919964814 2.879727783732 3.804309529455 0 0 0
32 1 6.665674763021 2.879727783732 3.804309529455 0 0 0
33 1 2.913377399103 6.017516885964 0.5 0 0 0
34 1 8.74013219731 6.017516885964 0.5 0 0 0
35 1 0 0.9713992090940001 0.5 0 0 0
36 1 5.826754798206999 0.9713992090940001 0.5 0 0 0
37 1 4.889407083427976 0.2652962703957837 5.339647549444735 0 0 0
38 1 10.716159198827743 0.2652982096986001 5.339655237047626 0 0 0
39 1 1.9760411052643196 5.311423588818066 5.339609970765156 0 0 0
40 1 7.8027901172575325 5.31142543731872 5.3396244700153455 0 0 0
41 1 2.074457434289 7.925845460602003 3.804309529455 0 0 0
42 1 7.9012122324959995 7.925845460602003 3.804309529455 0 0 0
43 1 4.987834833392 2.879727783732 3.804309529455 0 0 0
44 1 10.814589631599 2.879727783732 3.804309529455 0 0 0
45 1 3.902694507340735 1.7569200803969411 8.480638834744868 0 0 0
46 1 9.729427654844521 1.756918683377799 8.480633886815427 0 0 0
47 1 0.9893013575499178 6.803036309021365 8.480631186944915 0 0 0
48 1 6.816063179114291 6.803036436520072 8.480634500599134 0 0 0
49 1 2.353881426221603 2.501361363632009 8.480632233115589 0 0 0
50 1 8.180627535175248 2.501370463528448 8.480634210006547 0 0 0
51 1 5.267254435651821 7.547477111959135 8.480636182094983 0 0 0
52 1 11.094003904635839 7.547483947240857 8.480636631070672 0 0 0
53 1 2.913381929705787 1.6820407553221597 7.159028039868885 0 0 0
54 1 8.740138023301732 1.6820395297878306 7.159028401711237 0 0 0
55 1 11.653505612847745 6.728157147817028 7.159027838266956 -1 0 0
56 1 5.826750888982123 6.728156656356208 7.159029961574433 0 0 0
57 1 0.6984236429701365 0.6791167835955907 5.3396305825272385 0 0 0
58 1 6.525181288643816 0.6791151899463228 5.3396268159918625 0 0 0
59 1 3.6118150154679087 5.72523276182824 5.339655201773913 0 0 0
60 1 9.438565723701164 5.725231871817002 5.339651112522676 0 0 0
61 1 2.4835758147957145 0.7878405862651571 8.480631599665731 0 0 0
62 1 8.310325124823118 0.787832406937628 8.480633821989628 0 0 0
63 1 11.223703609091805 5.833952536294323 8.48063312124838 -1 0 0
64 1 5.396949255303296 5.833950484130754 8.4806357581104 0 0 0
65 2 2.913377399103 8.410196128116 3.4593945362619998 0 0 0
66 2 8.74013219731 8.410196128116 3.4593945362619998 0 0 0
67 2 0 3.364078451247001 3.4593945362619998 0 0 0
68 2 5.826754798206999 3.364078451247001 3.4593945362619998 0 0 0
69 2 2.9133611321580806 1.6820379071162113 8.188096709930637 0 0 0
70 2 8.74015762926133 1.6820367487097816 8.188096295246057 0 0 0
71 2 5.458624697928214e-06 6.728150255871071 8.188096205663681 0 0 0
72 2 5.826747011811331 6.7281601292744435 8.188097818058083 0 0 0
73 2 1.4046423713875262e-06 5.63973494567522e-07 5.672721191798628 0 0 0
74 2 5.826756355773006 10.09223215149123 5.672716409638105 0 -1 0
75 2 2.9133730790242307 5.046120902672558 5.672717682026888 0 0 0
76 2 8.740130892343426 5.046116554341239 5.672715557640998 0 0 0
77 2 0 0 0.841630424356 0 0 0
78 2 5.826754798206999 0 0.841630424356 0 0 0
79 2 2.913377399103 5.04611767687 0.841630424356 0 0 0
80 2 8.74013219731 5.04611767687 0.841630424356 0 0 0
81 3 4.070486295527204 7.613868020192128 6.045225761444743 0 0 0
82 3 9.897239301833135 7.6138672501895135 6.04522496215838 0 0 0
83 3 1.1571065282568476 2.567752455064356 6.045220376505186 0 0 0
84 3 6.983860302586931 2.567754000909742 6.045218910274386 0 0 0
85 3 1.7609273979534275 9.22662087108156 8.038592958106442 0 0 0
86 3 7.5876838873609875 9.226620978288608 8.038594157425718 0 0 0
87 3 4.674312829408369 4.180499193623736 8.03860247269126 0 0 0
88 3 10.501065525126947 4.180500502266613 8.038599211062436 0 0 0
89 3 4.1966399463707535 9.000031690397373 8.038600063305003 0 0 0
90 3 10.023396064699652 9.00003186979751 8.03859881721088 0 0 0
91 3 1.283270045420803 3.953918567149475 8.038591449152289 0 0 0
92 3 7.110025411587008 3.9539155386679927 8.038592773051182 0 0 0
93 3 3.024466152127128 9.810443048935472 6.045222284615387 0 0 0
94 3 8.8512204249169 9.810443039194208 6.045222394635394 0 0 0
95 3 0.11108077006701413 4.764325369462778 6.045221157623211 0 0 0
96 3 5.937836578825227 4.764327628977203 6.045224119263512 0 0 0
97 3 2.913377399103 3.091758003697 3.301072480865 0 0 0
98 3 8.74013219731 3.091758003697 3.301072480865 0 0 0
99 3 0 8.137875680567 3.301072480865 0 0 0
100 3 5.826754798206999 8.137875680567 3.301072480865 0 0 0
101 3 4.132202971907 2.385728498177 1.3166483637919997 0 0 0
102 3 9.958957770113 2.385728498177 1.3166483637919997 0 0 0
103 3 1.218825572803 7.431846175046 1.3166483637919997 0 0 0
104 3 7.04558037101 7.431846175046 1.3166483637919997 0 0 0
105 3 1.645186672910978 7.8062750856155105 6.045220442708916 0 0 0
106 3 7.471939603693248 7.806275779671047 6.045221819885626 0 0 0
107 3 4.558559766017952 2.7601587411312396 6.045225338440574 0 0 0
108 3 10.385315309744774 2.7601548959915094 6.045225706883458 0 0 0
109 3 2.782553757118207 7.003936973174367 8.03859727791145 0 0 0
110 3 8.609308821266875 7.00393775065183 8.038598029225765 0 0 0
111 3 11.522694884960547 1.9578206096383832 8.038598727420188 -1 0 0
112 3 5.6959398149326015 1.9578183881752587 8.038594882197629 0 0 0
113 3 4.134229673107 0.977179836586 3.301072480865 0 0 0
114 3 9.960984471314 0.977179836586 3.301072480865 0 0 0
115 3 1.220852274004 6.023297513456001 3.301072480865 0 0 0
116 3 7.04760707221 6.023297513456001 3.301072480865 0 0 0
117 3 1.6945518263 2.385728498177 1.3166483637919997 0 0 0
118 3 7.521306624506 2.385728498177 1.3166483637919997 0 0 0
119 3 4.607929225403 7.431846175046 1.3166483637919997 0 0 0
120 3 10.43468402361 7.431846175046 1.3166483637919997 0 0 0
121 3 1.692525125099 0.977179836586 3.301072480865 0 0 0
122 3 7.519279923306 0.977179836586 3.301072480865 0 0 0
123 3 4.605902524203 6.023297513456001 3.301072480865 0 0 0
124 3 10.432657322409 6.023297513456001 3.301072480865 0 0 0
125 3 2.913377399103 0.274660680517 1.3166483637919997 0 0 0
126 3 8.74013219731 0.274660680517 1.3166483637919997 0 0 0
127 3 0 5.320778357386001 1.3166483637919997 0 0 0
128 3 5.826754798206999 5.320778357386001 1.3166483637919997 0 0 0
129 4 2.913377399103 1.6820392256230001 2.298794083496 0 0 0
130 4 8.74013219731 1.6820392256230001 2.298794083496 0 0 0
131 4 0 6.728156902493 2.298794083496 0 0 0
132 4 5.826754798206999 6.728156902493 2.298794083496 0 0 0
133 4 2.9133771542522435 8.41019610797049 7.058501869736667 0 0 0
134 4 8.740131153317593 8.410195820417787 7.058503519834903 0 0 0
135 4 6.811335888711983e-07 3.364079565699413 7.058500787066627 0 0 0
136 4 5.826755947616959 3.3640783399673424 7.05850303877312 0 0 0

Velocities

1 0 0 0
2 0 0 0
3 0 0 0
4 0 0 0
5 0 0 0
6 0 0 0
7 0 0 0
8 0 0 0
9 0 0 0
10 0 0 0
11 0 0 0
12 0 0 0
13 1.765282904224736e-05 -0.0010013471099312057 0.03753002624322659
14 0.00029790947005500486 0.0014047865436064072 0.059273657395652726
15 0.0006958861178974101 -0.0004925209532185359 0.04486578467975295
16 -0.0007151973621835502 0.0003168599808867626 0.05276389049403635
17 0 0 0
18 0 0 0
19 0 0 0
20 0 0 0
21 0 0 0
22 0 0 0
23 0 0 0
24 0 0 0
25 0.10632432290968365 0.017479046674223758 0.05111997100881019
26 0.10222977488921953 0.029697831468231434 0.05570394355505288
27 0.10673205981762096 0.013468289815407975 0.04923729930148145
28 0.10078674383756868 0.03904177305924178 0.05921756289413084
29 0 0 0
30 0 0 0
31 0 0 0
32 0 0 0
33 0 0 0
34 0 0 0
35 0 0 0
36 0 0 0
37 -0.030237741045379712 -0.10125618469718006 0.05465778110166946
38 -0.030828135673897698 -0.10304840402080474 0.05294374348954092
39 -0.02514436030719127 -0.1041457527068269 0.0551373890896817
40 -0.03497912878651823 -0.10096870037688034 0.05266256980066241
41 0 0 0
42 0 0 0
43 0 0 0
44 0 0 0
45 0.06977174335547615 0.007433310280579282 0.04111972374999362
46 -0.08824506506917557 -0.002138865813498287 -0.005086719516132713
47 -0.026656107123206454 0.003012099436408726 0.013001653680872676
48 0.022090014699323868 0.0017244676835052575 0.02719531551908571
49 0.02226110292896566 -0.023978997038073817 0.011014856555093912
50 -0.04131850863976186 0.04381120805114125 0.03826381244125994
51 0.013723519797332615 -0.02176466659049685 0.01315240765371278
52 -0.0223480494063246 0.02695761506888666 0.031027972335569462
53 0.006184474942070684 0.0008248850688132028 0.018850557236434192
54 -0.007842049658612144 0.0009099985631550391 0.021177076687054958
55 -0.0024896718010463947 0.0019913373429704256 0.020373522952753752
56 0.002021549422424753 -0.001416347731983886 0.021234573551114903
57 -0.07334566428369015 0.07682282219677886 0.052965129518246154
58 -0.06859375882351627 0.08337536115580571 0.052306720306632866
59 -0.07088942629829999 0.07908202824557337 0.05267869696984996
60 -0.0747739705286915 0.07706052264697791 0.05454313796418408
61 0.024814103929481093 0.030948738852169783 0.00938075360763409
62 -0.019496345185205058 -0.023035207049967865 0.02912005810255587
63 0.001975928816108896 0.008698854823508503 0.01813324879822291
64 0.0030599550580195957 -0.006030158913604153 0.021882114453058328
65 0 0 0
66 0 0 0
67 0 0 0
68 0 0 0
69 -0.0788667207722808 -0.009815219562267143 0.015063876358382923
70 0.10077677971649703 -0.012566577617727313 0.013122934106235655
71 0.031759875848494074 -0.02619339262238178 0.013736167561315177
72 -0.026199065659148212 0.017641893138991737 0.013125988818340659
73 -0.001710450629333078 0.00850951082905385 0.039151699565529906
74 -0.001323708862941411 -0.014113756910781186 0.018988035896273497
75 -0.00683205795162458 0.005105678541361705 0.03227974284631061
76 0.005029020950199862 -0.0038857369871948214 0.025031456505440936
77 0 0 0
78 0 0 0
79 0 0 0
80 0 0 0
81 -0.005730920461241843 -0.007473427148825566 0.012189357936740754
82 -0.005509389806426598 -0.007357920893007501 0.01141356965139554
83 -0.005581365719566959 -0.007801844189621707 0.012540617632605392
84 -0.005855046586897077 -0.006973905691761619 0.01101231471047532
85 0.0034940642384964746 0.006405425276000321 0.013299166178276268
86 0.004440094953125777 0.004076767439489102 0.011724746952517342
87 0.0033294247246065454 0.005696009988401308 0.012468210725973173
88 0.004435785018207193 0.0046655045493677475 0.012589319897185397
89 0.002644145072551606 -0.006669624286509552 0.01281947042183781
90 0.0020446331253764984 -0.004907938388538128 0.011971706223352235
91 0.0028842084475167637 -0.006750866559724871 0.012978507020333579
92 0.001174457265314283 -0.004799759022081656 0.011386417061408456
93 0.009037502530779892 -0.0014412422367746651 0.012100573277417913
94 0.009538101471573482 -0.0006395943419179435 0.01157734717830175
95 0.00943412429166263 -0.0014584819764490032 0.012357445398565549
96 0.009044613923395554 -0.0006482142117551125 0.011195055951023302
97 0 0 0
98 0 0 0
99 0 0 0
100 0 0 0
101 0 0 0
102 0 0 0
103 0 0 0
104 0 0 0
105 -0.0034143304425026605 0.00857224505631869 0.012274263654636868
106 -0.003876355465774922 0.00859465671789533 0.011383400106965447
107 -0.003732834632986057 0.008810799954062344 0.011187298068169852
108 -0.0036039675789203795 0.008220123373470334 0.012458297875660428
109 -0.007082085058218091 0.00030169544430091674 0.013019020408568274
110 -0.005903317857985224 0.0013929709656865183 0.011877749642127091
111 -0.008174168692400927 -0.0011102392350273735 0.014263298619563627
112 -0.005214805754741346 0.002321330947149625 0.01096749138732204
113 0 0 0
114 0 0 0
115 0 0 0
116 0 0 0
117 0 0 0
118 0 0 0
119 0 0 0
120 0 0 0
121 0 0 0
122 0 0 0
123 0 0 0
124 0 0 0
125 0 0 0
126 0 0 0
127 0 0 0
128 0 0 0
129 0 0 0
130 0 0 0
131 0 0 0
132 0 0 0
133 0.0009543113554920531 0.00022798820923820634 0.01017177344877367
134 -0.0007442665278712792 -0.0005341567871258679 0.014420380731687638
135 -0.0006986705712682198 0.003007213680671538 0.009380938515759095
136 0.0017494675885025008 -0.0024860245385212487 0.015337127153229048
