88
Lattice="9.8224603672817 0.0 0.0 -4.911230183640904 8.519569098152305 0.0 5.83e-14 0.0360251379324295 26.999979658241696" Properties=species:S:1:pos:R:3:forces:R:3 energy=-614.3892764060822 stress="-0.0017764457042509316 -0.0018717781446742161 -0.004307089795175475 -0.0018717781446742161 0.00017908959449969704 0.0004469218315022629 -0.004307089795175475 0.0004469218315022629 0.006912742138764965" free_energy=-614.3892764060822 pbc="T T F"
H        0.34216190       1.75336490       0.68922799       0.27461274       0.02745010       1.63871935
H        6.21914013       1.80380786      10.43251643       0.00696592       0.01570103      -0.01106953
H        5.25339209       1.75336490       0.68922799       0.27532898       0.02701003       1.63875728
H        1.27009537       1.73042093      10.46882985      -0.04497185       0.35475809       0.04192944
H        2.79777699       2.50862738       0.09796472       0.39885126      -0.15593469       1.93214083
H        7.70900718       2.50862738       0.09796472       0.39929369      -0.15581973       1.93250325
H        3.69377924       6.03255807      10.42653034       0.01396198      -0.02371919      -0.00933627
H        6.76272591       4.00629395      10.52367596       0.03089712       0.01168262      -0.00807673
H       -2.11345319       6.01314945       0.68922799       0.27499083       0.02708039       1.63810964
H        2.79777699       6.01314945       0.68922799       0.27513516       0.02724063       1.63951373
H        0.34216190       6.76841193       0.09796472       0.39909826      -0.15580401       1.93235249
H        1.89021637       4.04901901      10.47341472      -0.25576990      -0.10491300       0.08157032
H        5.25339209       6.76841193       0.09796472       0.39897615      -0.15601350       1.93219038
H       -1.23988146       6.06619241      10.45282915       0.02412062      -0.08543663      -0.01098682
H       -0.59010826       8.22447256      10.51515599      -0.00327577       0.00439873      -0.01567643
H        4.35485896       8.21029583      10.50523655      -0.00425263       0.01177084      -0.01403184
O        5.49748601       4.77562063       8.26173486       0.01880877       0.00461289      -0.02467682
O       -1.45709724       7.76453268      10.55916119      -0.00539393       0.04008308       0.02081314
O        5.68502388       4.85167455       2.91987818      -0.13720904       0.04833334       0.18945036
O        0.23642584       1.69821950       7.05916774       0.02703369      -0.00915486      -0.06529222
O        0.77379370       4.85167455       2.91987818      -0.10444578       0.06272915       0.14482578
O        0.61383785       4.80978940       8.29107968       0.01516034       0.26432195      -0.32138588
O        7.97583719       0.54668140       8.28356314      -0.01088911      -0.02764947      -0.01063175
O       -2.11345319       6.01396077       1.68922766       0.11542020      -0.28290407      -1.43726974
O        5.63147839       3.68838881       5.32300658      -0.00600762       0.01503260      -0.02370623
O        3.22940879       0.59189000       2.91987818      -0.12431619       0.04756727       0.18589221
O        5.25339209       6.76922326       1.09796439      -0.18418043       0.38747378      -1.67351493
O        6.25459468       1.18858138       4.72721483       0.00663539      -0.01921258      -0.02540390
O       -1.25972822       5.07547203      10.34656326      -0.19736054       0.13962008      -0.00956638
O        7.70900718       2.50943871       1.09796439      -0.18456882       0.38838913      -1.67387570
O        7.59860410       2.57498260       6.62811213      -0.04084688      -0.00598466      -0.05684384
O        2.79777699       6.01396077       1.68922766       0.11744740      -0.28227694      -1.43683637
O       -1.11660260       5.44880564       4.71872722      -0.00421847      -0.01979795      -0.02950410
O        1.32936720       1.18678070       4.71637877       0.01298051      -0.01592913      -0.02720845
O        5.14277325       6.82195529       6.61831515      -0.00682336       0.01094964      -0.03562453
O        3.64875609       5.04277913      10.32566626       0.11367938       0.02183226      -0.01681126
O        3.82788477       2.86143829       9.02989803       0.03500508      -0.04059688      -0.04274378
O        8.14063897       0.59189000       2.91987818      -0.11928148       0.06266948       0.14807045
O       -1.11571431       3.10401670       3.48815814      -0.21982147      -0.13800494       0.01751188
O        3.06569344       0.51115040       8.26948409       0.00872975       0.00368401      -0.01625239
O        5.15122879       1.68581254       7.06180898       0.01701361      -0.00535082      -0.03776291
O        3.79311449       5.44499481       4.72691915       0.00044447      -0.02428424      -0.03002112
O       -1.04927981       2.88906047       9.04453487      -0.18687530      -0.14325510      -0.19209220
O       -3.57132940       7.36380125       3.48815814      -0.25114565      -0.17783257      -0.02273532
O        3.49521783       7.73167620      10.52558997      -0.00940029       0.01339972       0.00836510
O        6.19799233       0.81077017      10.39911677      -0.02629759       0.00375469       0.03174840
O        1.33990079       7.36380125       3.48815814      -0.21632200      -0.11663287       0.02829644
O       -3.51917385       7.10855400       9.03494137      -0.01004268      -0.01295553      -0.02042875
O        1.37406579       7.16817835       9.03343062       0.01702894       0.04193764      -0.00083631
O        3.79551588       3.10401670       3.48815814      -0.22692898      -0.13878562       0.00974316
O        0.34216190       6.76922326       1.09796439      -0.18395817       0.38821552      -1.67310769
O       -1.74412719       7.94880361       5.32496598      -0.01222864       0.01548589      -0.02540780
O        1.18024626       0.76763047      10.29873798       0.06117187      -0.20867677      -0.01272408
O        3.18020802       7.95147872       5.32029358      -0.00811716       0.01517278      -0.03079886
O        2.69229800       2.54774924       6.60744755      -0.00450118      -0.00099667      -0.03845677
O        2.79777699       2.50943871       1.09796439      -0.18374811       0.38677756      -1.67278603
O        2.68475766       5.96497463       7.06052891       0.03707583       0.02291377      -0.03601175
O        0.34216190       1.75417623       1.68922766       0.11789537      -0.28327080      -1.43904500
O        5.25339209       1.75417623       1.68922766       0.11605050      -0.28417059      -1.43649557
O        0.72309750       3.69223646       5.32251631      -0.00825520       0.00696864      -0.04243707
O        5.91010204       3.51659236      10.55426943      -0.00486300      -0.01625986       0.01865668
O        0.21988168       6.82776439       6.62009326      -0.02257538       0.04133515      -0.05490762
O       -2.22721736       5.93427904       7.05138225       0.00670276       0.00340274      -0.03362161
O        1.01750533       3.59762225      10.58487120      -0.23507190       0.03890831      -0.35683643
F        3.19280131       1.32283421      14.08359027      -0.09120521       0.12702131      -0.04760704
F        4.01488705       3.50502036      13.76239915      -0.13607556      -0.06013914      -0.00475397
F        3.40808767       2.19358520      11.90362862      -0.05209220       0.02972706       0.14767560
Si      -0.17673500       4.16186125       9.55410988       0.80641157      -0.33257025       0.67816101
Si      -3.68431935       6.16468731       7.71774304       0.00061218      -0.02559471       0.04977108
Si      -3.59934778       6.25180632       2.29942607      -0.26458953       0.11146828      -0.66343307
Si      -1.21717987       1.93393806       7.72879821       0.04491889       0.12482819       0.19549211
Si       3.76749750       1.99202177       2.29942607      -0.26308847       0.11752325      -0.66603876
Si      -1.14373268       1.99202177       2.29942607      -0.26563833       0.10423925      -0.65979549
Si       7.18754387       0.01773666       4.09026115      -0.00063603       0.00476083       0.03676197
Si       1.24398355       2.27711497       5.90999743      -0.02438625      -0.00103725       0.08901977
Si       3.70001678       6.54034277       5.91524649      -0.02358520      -0.01312434       0.06393694
Si       7.23045530      -0.13247749       9.56317277       0.03110784      -0.03940708      -0.02983667
Si       6.15900217       2.27983035       5.91920756       0.03160755      -0.00122211       0.06489408
Si       3.68784884       1.90637892       7.71640143      -0.02344153       0.03828030       0.08278171
Si       1.31188241       6.25180632       2.29942607      -0.26942481       0.10148343      -0.66351268
Si       1.22930193       6.20483201       7.72506797      -0.08972368      -0.18483338       0.13221595
Si       4.73111923       4.27714199       4.09087015       0.00352149      -0.00204166       0.04057356
Si      -1.21991465       6.53540987       5.91339246       0.05041769      -0.00194093       0.06525704
Si      -0.17949938       4.27737410       4.08978269       0.00367037      -0.00001128       0.04834091
Si       4.73420551       4.11305441       9.54202649      -0.08411833       0.05133638       0.03968513
Si       2.29189760      -0.15347823       9.54060460      -0.05133935       0.03665572       0.03371314
Si       2.27278735       0.01883742       4.08885704      -0.00403250       0.00977798       0.04754260
P        4.30328291       2.04764002      13.21316255       0.29855745      -0.08622002      -0.13916718
88
Lattice="9.8224603672817 0.0 0.0 -4.911230183640904 8.519569098152305 0.0 5.83e-14 0.0360251379324295 26.999979658241696" Properties=species:S:1:pos:R:3:forces:R:3 energy=-614.4086856676129 stress="-0.0016825295702581737 -0.0014240224652883752 -0.0036492723230416146 -0.0014240224652883752 0.0005811019111598134 0.0006044600635100083 -0.0036492723230416146 0.0006044600635100083 0.006866496661248627" free_energy=-614.4086856676129 pbc="T T F"
H        0.34216190       1.75336490       0.68922799       0.27420172       0.02741667       1.64049291
H        6.21923964       1.80403216      10.43235829       0.00860821       0.00634004      -0.01414600
H        5.25339209       1.75336490       0.68922799       0.27492492       0.02700229       1.64053060
H        1.26945291       1.73548890      10.46942884      -0.07488822      -0.02714597      -0.02128479
H        2.79777699       2.50862738       0.09796472       0.39903205      -0.15600738       1.93451668
H        7.70900718       2.50862738       0.09796472       0.39944725      -0.15588820       1.93488719
H        3.69397870       6.03221922      10.42639696       0.01408103       0.01194976      -0.00548794
H        6.76316730       4.00646084      10.52356058       0.00534853       0.00073271      -0.01095200
H       -2.11345319       6.01314945       0.68922799       0.27454011       0.02707765       1.63982888
H        2.79777699       6.01314945       0.68922799       0.27471893       0.02723749       1.64125956
H        0.34216190       6.76841193       0.09796472       0.39924593      -0.15590001       1.93475716
H        1.88656251       4.04752025      10.47458001      -0.14461042      -0.07351876       0.08687794
H        5.25339209       6.76841193       0.09796472       0.39916174      -0.15611311       1.93459886
H       -1.23953688       6.06497189      10.45267220       0.03257762       0.03566173      -0.00038956
H       -0.59015506       8.22453540      10.51493204       0.00283814       0.01006613      -0.01837041
H        4.35479821       8.21046398      10.50503610      -0.01116657       0.00398021      -0.01460968
O        5.49775471       4.77568653       8.26138233      -0.01635250      -0.03316307       0.01708126
O       -1.45717430       7.76510530      10.55945852      -0.02091287       0.04479637       0.01690366
O        5.68502388       4.85167455       2.91987818      -0.13937662       0.04746111       0.18935430
O        0.23681204       1.69808872       7.05823499      -0.03339090      -0.01341898      -0.00410868
O        0.77379370       4.85167455       2.91987818      -0.10735320       0.06115551       0.14703251
O        0.61405443       4.81356543       8.28648845      -0.15906108      -0.06691647      -0.00145757
O        7.97568163       0.54628641       8.28341126       0.00545607      -0.00678529      -0.02214112
O       -2.11345319       6.01396077       1.68922766       0.11803699      -0.28325730      -1.44279354
O        5.63139257       3.68860356       5.32266792       0.01056158      -0.01013516       0.00026087
O        3.22940879       0.59189000       2.91987818      -0.12734598       0.04731919       0.18649255
O        5.25339209       6.76922326       1.09796439      -0.18635320       0.38826378      -1.67977471
O        6.25468947       1.18830691       4.72685192      -0.00681015       0.01224665       0.00110770
O       -1.26254766       5.07746660      10.34642660      -0.00048865      -0.16258339      -0.11964085
O        7.70900718       2.50943871       1.09796439      -0.18658887       0.38931566      -1.67994757
O        7.59802057       2.57489710       6.62730008       0.03865725      -0.02317374       0.01014959
O        2.79777699       6.01396077       1.68922766       0.12007596      -0.28250938      -1.44226765
O       -1.11666286       5.44852281       4.71830573      -0.01366745       0.00825935      -0.00232589
O        1.32955264       1.18655314       4.71599008      -0.00295145       0.02628154       0.01116363
O        5.14267577       6.82211171       6.61780623       0.02027783       0.00027291      -0.00609572
O        3.65038008       5.04309102      10.32542610       0.04285133       0.02314481       0.01522969
O        3.82838484       2.86085833       9.02928740       0.03103263       0.01290422       0.01621194
O        8.14063897       0.59189000       2.91987818      -0.12042991       0.06324759       0.14626784
O       -1.11571431       3.10401670       3.48815814      -0.21671935      -0.13709307       0.01457941
O        3.06581815       0.51120303       8.26925191      -0.00844661      -0.00174296       0.00601168
O        5.15147184       1.68573610       7.06126951      -0.03823929      -0.00522063       0.00399003
O        3.79312084       5.44464789       4.72649028      -0.01188083       0.00617969      -0.00140622
O       -1.05194946       2.88701397       9.04179070       0.01390493       0.16697342       0.06647661
O       -3.57132940       7.36380125       3.48815814      -0.24886458      -0.17615175      -0.02661484
O        3.49508354       7.73186762      10.52570947       0.00954216       0.00535391       0.01956161
O        6.19761665       0.81082381      10.39957032      -0.00633606      -0.00857950       0.01950869
O        1.33990079       7.36380125       3.48815814      -0.21497189      -0.11719229       0.02328787
O       -3.51931732       7.10836892       9.03464953      -0.00343989       0.00612131       0.00122275
O        1.37430906       7.16877746       9.03341867       0.00466227       0.01071937      -0.00470519
O        3.79551588       3.10401670       3.48815814      -0.22537185      -0.13901458       0.00582144
O        0.34216190       6.76922326       1.09796439      -0.18601083       0.38905235      -1.67931408
O       -1.74430188       7.94902484       5.32460301       0.00694745      -0.01269862       0.00016150
O        1.18112014       0.76464937      10.29855621       0.01391672       0.24360982       0.10683214
O        3.18009206       7.95169547       5.31985360       0.01071696      -0.01221169      -0.00712577
O        2.69223370       2.54773500       6.60689817       0.02209019      -0.00143283      -0.00377777
O        2.79777699       2.50943871       1.09796439      -0.18582424       0.38784167      -1.67895968
O        2.68528731       5.96530197       7.06001446      -0.03492455       0.01498835       0.02021981
O        0.34216190       1.75417623       1.68922766       0.12049864      -0.28334711      -1.44436068
O        5.25339209       1.75417623       1.68922766       0.11872462      -0.28421300      -1.44199952
O        0.72297957       3.69233601       5.32191007       0.01436644      -0.02123403      -0.00794777
O        5.91003257       3.51636008      10.55453595      -0.00320732       0.00760051       0.00704449
O        0.21955917       6.82835489       6.61930887       0.04993041       0.02666841       0.00519865
O       -2.22712161       5.93432765       7.05090194      -0.02099991      -0.00032614      -0.01094346
O        1.01414716       3.59817808      10.57977354       0.04384082      -0.13058612      -0.07039279
F        3.19149838       1.32464880      14.08291017      -0.01508338       0.13281864      -0.07987612
F        4.01294311       3.50416123      13.76233124      -0.09401809      -0.09253586      -0.02026176
F        3.40734350       2.19400987      11.90573827      -0.05378930       0.02708203       0.09791745
Si      -0.16521483       4.15711025       9.56379789       0.14016676      -0.07898773       0.14642212
Si      -3.68431060       6.16432167       7.71845406       0.01394431      -0.00193147      -0.01613116
Si      -3.59934778       6.25180632       2.29942607      -0.26578339       0.11090016      -0.64662824
Si      -1.21653817       1.93572132       7.73159095      -0.00734097       0.01565429      -0.01558556
Si       3.76749750       1.99202177       2.29942607      -0.26492354       0.11486716      -0.64997408
Si      -1.14373268       1.99202177       2.29942607      -0.26734245       0.10228803      -0.64397758
Si       7.18753478       0.01780467       4.09078632      -0.00106214       0.00104089       0.01349533
Si       1.24363518       2.27710015       5.91126914      -0.01356019      -0.00072435      -0.00389502
Si       3.69967985       6.54015528       5.91615987      -0.01419689       0.00189565      -0.00010022
Si       7.23089970      -0.13304045       9.56274653       0.00092809       0.00681484      -0.02067048
Si       6.15945371       2.27981289       5.92013462       0.01166598      -0.00246261      -0.00022000
Si       3.68751396       1.90692578       7.71758403       0.00656698      -0.00225070      -0.02215694
Si       1.31188241       6.25180632       2.29942607      -0.27104952       0.10035350      -0.64741219
Si       1.22802016       6.20219153       7.72695677       0.00862523       0.04092724      -0.02816051
Si       4.73116954       4.27711282       4.09144977       0.00400402      -0.00407396       0.01397259
Si      -1.21919440       6.53538214       5.91432470       0.01768000       0.00276091       0.00475677
Si      -0.17944695       4.27737394       4.09047327      -0.00362247       0.00167701       0.01103432
Si       4.73300382       4.11378779       9.54259342       0.02102284       0.00352691      -0.01705664
Si       2.29116418      -0.15295458       9.54108622       0.04796026      -0.05177269      -0.03342411
Si       2.27272974       0.01897711       4.08953622       0.00022791      -0.00046190       0.01731690
P        4.30754802       2.04640831      13.21117445       0.18114793      -0.05708791      -0.04096489
88
Lattice="9.8224603672817 0.0 0.0 -4.911230183640904 8.519569098152305 0.0 5.83e-14 0.0360251379324295 26.999979658241696" Properties=species:S:1:pos:R:3:forces:R:3 energy=-614.4138276440044 stress="-0.001861904720865822 -0.0013909466645595594 -0.0037074724655160166 -0.0013909466645595594 0.0002758281507915034 0.0003136059944893804 -0.0037074724655160166 0.0003136059944893804 0.00684870996817123" free_energy=-614.4138276440044 pbc="T T F"
H        0.34216190       1.75336490       0.68922799       0.27422590       0.02739933       1.64067643
H        6.21939786       1.80417932      10.43209940       0.00782233      -0.00112264      -0.01473698
H        5.25339209       1.75336490       0.68922799       0.27492444       0.02700162       1.64073545
H        1.26812183       1.73608190      10.46920910      -0.04882478       0.08324992      -0.00284471
H        2.79777699       2.50862738       0.09796472       0.39903376      -0.15598725       1.93478520
H        7.70900718       2.50862738       0.09796472       0.39943544      -0.15586803       1.93515408
H        3.69424494       6.03234208      10.42628191       0.01660641       0.02487159      -0.00379379
H        6.76334261       4.00650645      10.52336157       0.00011007      -0.00410249      -0.01220727
H       -2.11345319       6.01314945       0.68922799       0.27452876       0.02707423       1.64005281
H        2.79777699       6.01314945       0.68922799       0.27472143       0.02723271       1.64145266
H        0.34216190       6.76841193       0.09796472       0.39923370      -0.15588061       1.93503943
H        1.88350253       4.04603739      10.47620942      -0.02026730      -0.02532114       0.08103181
H        5.25339209       6.76841193       0.09796472       0.39916367      -0.15611132       1.93488563
H       -1.23894463       6.06529604      10.45263410       0.02946304      -0.07411235      -0.01007726
H       -0.59011905       8.22470955      10.51459206       0.00155041       0.01041242      -0.01767266
H        4.35460684       8.21056192      10.50476118      -0.00022431       0.01071362      -0.01313813
O        5.49754703       4.77516817       8.26158469       0.00109874      -0.00387949      -0.00744010
O       -1.45752524       7.76593973      10.55978988      -0.00569666       0.02746638       0.02411478
O        5.68502388       4.85167455       2.91987818      -0.14240217       0.04540561       0.19413247
O        0.23635501       1.69784702       7.05797987      -0.02711627      -0.01300870      -0.00119053
O        0.77379370       4.85167455       2.91987818      -0.11094877       0.05950490       0.15201254
O        0.61154802       4.81325863       8.28553356      -0.13310254      -0.04888303       0.02429646
O        7.97573755       0.54609747       8.28302544       0.01005904       0.00555408      -0.02266746
O       -2.11345319       6.01396077       1.68922766       0.11838214      -0.28328127      -1.44353342
O        5.63154450       3.68848463       5.32260339       0.01467521      -0.01248625       0.00728444
O        3.22940879       0.59189000       2.91987818      -0.13183662       0.04485613       0.19262852
O        5.25339209       6.76922326       1.09796439      -0.18656377       0.38835166      -1.68053638
O        6.25459951       1.18844759       4.72679605      -0.00582756       0.01164030       0.00406040
O       -1.26312753       5.07526446      10.34448058       0.01997179      -0.03808525      -0.08283403
O        7.70900718       2.50943871       1.09796439      -0.18679609       0.38945070      -1.68065772
O        7.59852200       2.57450820       6.62729805       0.01982005      -0.01711365      -0.00118475
O        2.79777699       6.01396077       1.68922766       0.12027263      -0.28238231      -1.44291978
O       -1.11689423       5.44859786       4.71818292      -0.01062674       0.01115035       0.00492852
O        1.32954294       1.18692836       4.71609021       0.00087366       0.01510108       0.00567990
O        5.14298113       6.82214783       6.61760524       0.00887828      -0.00343753      -0.00631656
O        3.65139664       5.04352540      10.32562156       0.02987188       0.01332146       0.01689649
O        3.82898387       2.86094757       9.02942345       0.01979288       0.00113508       0.00644187
O        8.14063897       0.59189000       2.91987818      -0.12398457       0.06146349       0.15118087
O       -1.11571431       3.10401670       3.48815814      -0.21577658      -0.13491426       0.01622477
O        3.06570802       0.51118576       8.26930120      -0.00298027       0.00226672      -0.00365954
O        5.15090804       1.68563688       7.06122403      -0.01218309      -0.00382405      -0.00953502
O        3.79293163       5.44467659       4.72638072      -0.01154537       0.00784843       0.00552281
O       -1.05226816       2.88927596       9.04229980       0.01860887       0.11118798       0.03812588
O       -3.57132940       7.36380125       3.48815814      -0.24669607      -0.17199196      -0.02387521
O        3.49520929       7.73199231      10.52604736      -0.00742953       0.00415204       0.01090442
O        6.19743884       0.81069713      10.39997514       0.00245624      -0.00645037       0.01111450
O        1.33990079       7.36380125       3.48815814      -0.21332595      -0.11408406       0.02577715
O       -3.51940158       7.10842952       9.03460992      -0.00727324       0.00975441       0.00590962
O        1.37443317       7.16907088       9.03334081      -0.00126582      -0.00000017      -0.00718398
O        3.79551588       3.10401670       3.48815814      -0.22316209      -0.13672699       0.00764191
O        0.34216190       6.76922326       1.09796439      -0.18622066       0.38923202      -1.68005625
O       -1.74422594       7.94886612       5.32453196       0.01061504      -0.01345512       0.00647779
O        1.18152058       0.76795052      10.30023225       0.05750867       0.03674066       0.03076996
O        3.18024037       7.95154365       5.31965007       0.01084424      -0.01031465      -0.00222301
O        2.69257484       2.54770914       6.60672613       0.00689927      -0.00114424      -0.00763403
O        2.79777699       2.50943871       1.09796439      -0.18602438       0.38798866      -1.67978732
O        2.68483481       5.96560870       7.06023428      -0.01644648       0.01281911       0.01174689
O        0.34216190       1.75417623       1.68922766       0.12066156      -0.28328566      -1.44497566
O        5.25339209       1.75417623       1.68922766       0.11914463      -0.28421806      -1.44270540
O        0.72318599       3.69201575       5.32165963       0.01168439      -0.01286713      -0.00645475
O        5.90996705       3.51643481      10.55470298       0.00356534       0.01139507       0.00606022
O        0.22029431       6.82890229       6.61923307       0.03080509       0.03022397      -0.00870743
O       -2.22743889       5.93433228       7.05062903      -0.00696635       0.00199500      -0.01585589
O        1.01416875       3.59619707      10.57761061       0.06328090      -0.21467062       0.04901418
F        3.19099218       1.32714655      14.08149147       0.02454200       0.11175675      -0.07963147
F        4.01104124       3.50250322      13.76199258      -0.05394128      -0.09428923      -0.02073075
F        3.40633007       2.19453026      11.90773629      -0.03007508       0.01682098       0.07217227
Si      -0.16063010       4.15487984       9.56811120      -0.04341091       0.00382122      -0.04152156
Si      -3.68408525       6.16421652       7.71833967      -0.00250379      -0.01759061      -0.01170698
Si      -3.59934778       6.25180632       2.29942607      -0.26610479       0.11095236      -0.64431076
Si      -1.21652568       1.93633412       7.73190768       0.00313687       0.03177099       0.03034078
Si       3.76749750       1.99202177       2.29942607      -0.26556719       0.11445000      -0.64761158
Si      -1.14373268       1.99202177       2.29942607      -0.26741297       0.10196929      -0.64219779
Si       7.18751591       0.01783516       4.09110925      -0.00120520       0.00118375      -0.00192254
Si       1.24334707       2.27708553       5.91146471      -0.00115948      -0.00039474       0.00189037
Si       3.69938386       6.54014763       5.91634359      -0.00172528      -0.00306275      -0.00055700
Si       7.23100474      -0.13304540       9.56232863       0.00245204       0.01661197       0.00140246
Si       6.15973237       2.27976986       5.92031918       0.00515423      -0.00406222       0.00461140
Si       3.68755131       1.90700065       7.71746871      -0.00309703       0.00079162      -0.00546165
Si       1.31188241       6.25180632       2.29942607      -0.27124472       0.09956089      -0.64571527
Si       1.22789840       6.20231202       7.72688847      -0.01381327       0.00414456       0.00228278
Si       4.73124394       4.27704159       4.09179141       0.00122011      -0.00138090       0.00058883
Si      -1.21876479       6.53542078       5.91459012       0.01515761       0.00018803       0.00253392
Si      -0.17949439       4.27740079       4.09079031      -0.00164783       0.00105316      -0.00177664
Si       4.73309708       4.11399313       9.54243496       0.02614267      -0.00550975       0.00278845
Si       2.29178436      -0.15367844       9.54064802      -0.02953679       0.03248305       0.01875633
Si       2.27272171       0.01899804       4.08995167      -0.00228822       0.00311835       0.00332000
P        4.31131785       2.04524307      13.21011426       0.07785341      -0.02333581      -0.01389912
88
Lattice="9.8224603672817 0.0 0.0 -4.911230183640904 8.519569098152305 0.0 5.83e-14 0.0360251379324295 26.999979658241696" Properties=species:S:1:pos:R:3:forces:R:3 energy=-614.418123237833 stress="-0.0018879428345925748 -0.0014998182660902145 -0.0038581219581191924 -0.0014998182660902145 0.00011472913795779524 0.0002742427459692861 -0.0038581219581191924 0.0002742427459692861 0.006831147112456053" free_energy=-614.418123237833 pbc="T T F"
H        0.34216190       1.75336490       0.68922799       0.27422468       0.02737413       1.64087114
H        6.21967176       1.80426287      10.43160839       0.00521711      -0.01010356      -0.01375869
H        5.25339209       1.75336490       0.68922799       0.27488616       0.02699932       1.64092998
H        1.26622326       1.73892351      10.46910361      -0.03544357       0.08420774      -0.00439103