90
Lattice="9.8224603672817 0.0 0.0 -4.911230183640904 8.519569098152305 0.0 5.83e-14 0.0360251379324295 26.999979658241696" Properties=species:S:1:pos:R:3:forces:R:3 energy=-611.2339424304304 stress="-0.010352572429709961 -0.00015143781465924456 -0.016981811228451903 -0.00015143781465924456 -0.0010260953312026615 0.006278021982957953 -0.016981811228451903 0.006278021982957953 -0.005071784442606339" free_energy=-611.2339424304304 pbc="T T F"
H        0.34216190       1.75336490       0.68922799       0.27086332       0.02666625       1.65478271
H       -0.57675463       8.23596160      10.53876413       0.01595441       0.02127827      -0.06499089
H        0.49308403       3.08394318      11.75820328       0.24622447      -0.08387020       1.49833602
H       -1.21305515       6.06400248      10.47178916       0.20003517       0.00736328       0.11310086
H        5.25339209       6.76841193       0.09796472       0.40174512      -0.15705284       1.95176944
H        2.35171136       4.55266598      10.89538063      -1.14720062      -1.02115364      -1.22698719
H        0.34216190       6.76841193       0.09796472       0.40233582      -0.15659704       1.95212939
H        2.79777699       6.01314945       0.68922799       0.27229906       0.02695649       1.65636618
H        4.36146205       8.20016762      10.52441161       0.07931553       0.07872193      -0.03986601
H        6.78719140       4.01977378      10.52350409       0.30937623       0.07521721      -0.11983834
H        3.69959994       6.03034323      10.44017486       0.05969799       0.50081294       0.01648008
H        7.70900718       2.50862738       0.09796472       0.40302465      -0.15734606       1.95322801
H        2.79777699       2.50862738       0.09796472       0.40143049      -0.15710440       1.95211225
H       -2.11345319       6.01314945       0.68922799       0.27412819       0.02635200       1.65278116
H        1.41728239       2.05802251      10.95929541      -0.37310003      -4.81014022      -2.20891324
H        5.25339209       1.75336490       0.68922799       0.27380899       0.02661266       1.65371979
H        6.23753597       1.81077832      10.43792280       0.11406663      -0.05827234      -0.06036702
O        1.21475652       0.78386724      10.32872787       0.30045734       4.29496408       2.31535694
O       -1.01790207       2.88794157       9.06263757       2.66599689       1.55609741       2.22251589
O       -3.57132940       7.36380125       3.48815814      -0.23512000      -0.20526272      -0.07407601
O        3.50003072       7.72678127      10.54542657       0.06633650      -0.36804895       0.17186218
O        6.21364449       0.81784356      10.41011616      -0.11076958       0.01909757       0.17554893
O        1.33990079       7.36380125       3.48815814      -0.20271121      -0.13783583      -0.02642810
O       -3.51060701       7.12375842       9.04831858      -0.13509164      -0.00445135      -0.02778692
O        1.38510573       7.17233382       9.04272574       0.11959870       0.13871218       0.26080730
O        3.79551588       3.10401670       3.48815814      -0.20506377      -0.16110388      -0.04025160
O        0.34216190       6.76922326       1.09796439      -0.20425970       0.39696065      -1.72483087
O       -1.72902436       7.94532990       5.32158052      -0.04088459       0.07362368      -0.12994199
O        0.24232432       6.82912668       6.62015285      -0.00882051       0.10765472      -0.11861798
O        3.19537862       7.94144020       5.31562853      -0.02313833       0.02572499      -0.10710414
O        2.69947424       2.55004396       6.61565914       0.14834306       0.00426445       0.02928983
O        2.79777699       2.50943871       1.09796439      -0.20333042       0.39567327      -1.72183811
O        2.70725082       5.97242951       7.07862779       0.29194952       0.14475362      -0.17539239
O        0.34216190       1.75417623       1.68922766       0.14213027      -0.28880354      -1.48830394
O        5.25339209       1.75417623       1.68922766       0.13868731      -0.28496192      -1.47854577
O        0.73092298       3.68425298       5.32077472       0.00293111       0.06657896      -0.22098595
O        5.93454730       3.52939646      10.55611163      -0.61986206       0.11211695       0.09462920
O       -2.20663766       5.95044334       7.06920854      -0.15338372       0.09466980      -0.13347523
O        1.33879940       4.10443124      10.70600851      16.30966989      -0.16403666      10.84759528
O        5.15928038       1.68401125       7.06393574      -0.15408903       0.01958851       0.06904204
O        3.80342209       5.43204754       4.74305551       0.01920496      -0.04183299      -0.08023932
O       -1.11571431       3.10401670       3.48815814      -0.22697247      -0.16438624      -0.08035648
O        1.33966842       1.17931240       4.72746115       0.06664338      -0.09651344      -0.15915970
O        7.99650309       0.54746095       8.30290000      -0.26003208      -0.54745864       0.08248858
O        3.07968257       0.51545286       8.28218919       0.08298005       0.06379855      -0.07762384
O        0.77379370       4.85167455       2.91987818      -0.08313120       0.10315520       0.07312799
O        0.62899110       4.81253355       8.29243954       0.06793849      -0.87315102       2.37361440
O        5.64956391       3.68095775       5.31958998      -0.09285280       0.08511268      -0.12105664
O        0.24699557       1.69644550       7.06758089       0.36105591      -0.17544697      -0.48464516
O        5.68502388       4.85167455       2.91987818      -0.11442203       0.07322799       0.12352262
O       -1.43804473       7.76488289      10.57231181       0.01026813       0.11457149       0.06794303
O        5.51417172       4.78792694       8.26953296      -0.46876578      -0.10717880       0.38631562
O       -2.11345319       6.01396077       1.68922766       0.13580520      -0.28578252      -1.48184029
O        3.22940879       0.59189000       2.91987818      -0.08468282       0.07810201       0.09688205
O        8.14063897       0.59189000       2.91987818      -0.07556674       0.08492207       0.05940310
O        6.27063504       1.18206179       4.74021006       0.00026622      -0.08862168      -0.12038589
O       -1.23453446       5.07436664      10.35893413       2.94778534      -1.69859839      -0.00780381
O        7.70900718       2.50943871       1.09796439      -0.20751959       0.39419087      -1.72922950
O        7.60670337       2.57670134       6.65230175      -0.35364143      -0.08504805      -0.34668223
O        2.79777699       6.01396077       1.68922766       0.14256648      -0.28473593      -1.48080806
O       -1.11019617       5.44148309       4.73257223       0.01924209      -0.03824180      -0.14120249
O        5.25339209       6.76922326       1.09796439      -0.20373250       0.39372036      -1.72349007
O        5.16187519       6.82808779       6.62115918      -0.04598156      -0.02973483      -0.04834280
O        3.65751469       5.04144568      10.32911310      -0.83963747       0.32265667       1.03684648
O        3.84883605       2.86760208       9.03215960       0.07676583       0.31540637       0.30373007
F        4.09490275       3.58110916      13.77606594       2.76023010       3.52945953       6.16940444
F        3.64290117       2.62702297      12.31579434     -13.70580854       3.72681719     -21.84423275
F        0.61457952       2.99789607      12.71615874      -0.38999370      -0.71770386       0.04888613
F        3.25647198       1.40736808      14.10500710       0.03026626      -0.78078463       0.31065544
Si       4.75240130       4.11945851       9.54733979       1.13915936      -0.85649419      -0.92062596
Si      -0.17514283       4.27356982       4.09269049       0.00853500      -0.01246418       0.31493467
Si      -1.20216610       6.53735452       5.92048263       0.06735547      -0.16014604       0.35190152
Si       7.24266844      -0.13124023       9.57694409       0.01669540       0.44845673      -0.55211547
Si       4.73962947       4.26969952       4.09425506       0.02939198      -0.00639154       0.19725778
Si       1.24644109       6.20917832       7.73280125      -0.37686366      -0.60176999       0.10289053
Si       1.31188241       6.25180632       2.29942607      -0.29510059       0.07813639      -0.52101128
Si       3.69879410       1.90940638       7.72210749      -0.05764951      -0.21934533      -0.26940793
Si       6.17471486       2.27682794       5.92826636       0.34134160       0.03633372       0.25612075
Si       2.27900264       0.01379607       4.09102729      -0.01418480       0.04472251       0.22753494
Si       3.71757804       6.53667054       5.92299255      -0.06254832       0.03102689       0.19611364
Si       0.26479955       4.20239201       9.90411159     -21.45529451       3.13110092     -17.28487581
Si       1.25266927       2.27325718       5.91651585      -0.32744409       0.00555103       0.39475884
Si       7.19550524       0.01114261       4.09306389      -0.01919548       0.05115115       0.19260837
Si      -1.14373268       1.99202177       2.29942607      -0.27851126       0.11175946      -0.49278264
Si      -1.20086558       1.93615561       7.74671888       0.51749146       0.99734772       1.04621315
Si      -3.59934778       6.25180632       2.29942607      -0.27651889       0.10098750      -0.52811654
Si      -3.66771268       6.17865622       7.72893549       0.41342353       0.09170251      -0.11176435
Si       3.76749750       1.99202177       2.29942607      -0.28184106       0.09364488      -0.53623384
Si       2.31065113      -0.14580764       9.55869074       0.19178254       0.00083378       0.11170854
P        4.37744714       2.11861002      13.23720233      11.05811798      -6.66048524      15.56625602
90
Lattice="9.8224603672817 0.0 0.0 -4.911230183640904 8.519569098152305 0.0 5.83e-14 0.0360251379324295 26.999979658241696" Properties=species:S:1:pos:R:3:forces:R:3 energy=-618.267156301656 stress="-0.0024102152645148005 -0.0032694772220367733 -0.003740567654503285 -0.0032694772220367733 0.002832935078458174 0.0012770215312971323 -0.003740567654503285 0.0012770215312971323 0.006919532405421777" free_energy=-618.267156301656 pbc="T T F"
H        0.34216190       1.75336490       0.68922799       0.27307433       0.02682534       1.64910872
H       -0.57663956       8.23611507      10.53829537       0.03068337      -0.00054098      -0.03224592
H        0.49485996       3.08333825      11.76901026       0.42517388       0.48789426       0.88170927
H       -1.21161237       6.06405559      10.47260492       0.13894276      -0.37283795       0.08285306
H        5.25339209       6.76841193       0.09796472       0.40043640      -0.15647980       1.94463449
H        2.34343700       4.54530075      10.88653080       0.83630535       0.28262308      -0.91615633
H        0.34216190       6.76841193       0.09796472       0.40054002      -0.15594586       1.94468968
H        2.79777699       6.01314945       0.68922799       0.27429898       0.02680662       1.65049352
H        4.36203413       8.20073541      10.52412407      -0.02362386       0.01313040       0.00671689
H        6.78942282       4.02031630      10.52263974      -0.10763083      -0.14962465      -0.07350389
H        3.70003052       6.03395542      10.44029373       0.14335523       0.20631952      -0.02887127
H        7.70900718       2.50862738       0.09796472       0.40103112      -0.15653994       1.94540155
H        2.79777699       2.50862738       0.09796472       0.40022530      -0.15647050       1.94478396
H       -2.11345319       6.01314945       0.68922799       0.27452349       0.02660494       1.64787054
H        1.41459135       2.02332865      10.94336328      -0.14735274      -4.57380883      -2.43663312
H        5.25339209       1.75336490       0.68922799       0.27438048       0.02656022       1.64909871
H        6.23835869       1.81035802      10.43748739       0.02495479       0.00506256      -0.02170544
O        1.21692361       0.81484532      10.34542773       0.73576455       4.03555110       2.00576937
O       -0.99867316       2.89916516       9.07866780       1.99435520       1.24116017       1.43240097
O       -3.57132940       7.36380125       3.48815814      -0.22023861      -0.17904525      -0.03406934
O        3.50050918       7.72412666      10.54666615       0.00326447      -0.02993649      -0.01211803
O        6.21284555       0.81798130      10.41138233      -0.01857850      -0.01196272       0.07761851
O        1.33990079       7.36380125       3.48815814      -0.19038197      -0.10972113       0.02063387
O       -3.51158138       7.12372631       9.04811816      -0.05003983       0.15254189       0.06744010
O        1.38596835       7.17333430       9.04460685       0.00348410      -0.01568667      -0.02789909
O        3.79551588       3.10401670       3.48815814      -0.18988140      -0.13619930      -0.00037894
O        0.34216190       6.76922326       1.09796439      -0.19625007       0.39354528      -1.70545839
O       -1.72931925       7.94586092       5.32064329       0.04996355      -0.07752225       0.02802494
O        0.24226070       6.82990316       6.61929730       0.06235876      -0.02483882       0.02527574
O        3.19521173       7.94162575       5.31485603       0.01029313      -0.01926581      -0.02499363
O        2.70054419       2.55007472       6.61587040      -0.01669706       0.00912799      -0.06455168
O        2.79777699       2.50943871       1.09796439      -0.19611236       0.39281232      -1.70464630
O        2.70935655       5.97347357       7.07736275      -0.09051876       0.03526978       0.02825039
O        0.34216190       1.75417623       1.68922766       0.13248346      -0.28456443      -1.47005478
O        5.25339209       1.75417623       1.68922766       0.13162805      -0.28374715      -1.46536125
O        0.73094412       3.68473319       5.31918083       0.04382926       0.00325390      -0.03006518
O        5.93007645       3.53020512      10.55679416       0.18431498       0.15369162       0.06417897
O       -2.20774396       5.95112616       7.06824583      -0.01696532       0.02610124      -0.07641225
O        1.45643537       4.10324810      10.78424843      -3.56426073      -1.36306507      -1.33516828
O        5.15816899       1.68415254       7.06443372       0.01963575       0.00541752      -0.03636630
O        3.80356061       5.43174581       4.74247677      -0.00700776       0.02995127       0.00208620
O       -1.11571431       3.10401670       3.48815814      -0.19991125      -0.12528614      -0.00507918
O        1.34014910       1.17861628       4.72631319      -0.00832437       0.06012945       0.00327909
O        7.99462757       0.54351232       8.30349496       0.04917318       0.09915303      -0.19497361
O        3.08028108       0.51591302       8.28162932       0.01023202      -0.05224541      -0.03133351
O        0.77379370       4.85167455       2.91987818      -0.12447473       0.06431369       0.15455218
O        0.62948112       4.80623582       8.30955959       0.22015297      -0.02499696       0.56147845
O        5.64889420       3.68157164       5.31871684       0.01970251      -0.03626936       0.01066759
O        0.24959974       1.69518006       7.06408531      -0.04673020      -0.13321388      -0.13186456
O        5.68502388       4.85167455       2.91987818      -0.13296933       0.05310853       0.16764643
O       -1.43797067       7.76570925      10.57280186       0.07597414      -0.04089253       0.08132800
O        5.51079068       4.78715390       8.27231932       0.00904661       0.23849928      -0.12199978
O       -2.11345319       6.01396077       1.68922766       0.12973931      -0.28498369      -1.46656654
O        3.22940879       0.59189000       2.91987818      -0.10945467       0.05689037       0.14558187
O        8.14063897       0.59189000       2.91987818      -0.10011120       0.06618139       0.10892684
O        6.27063696       1.18142259       4.73934176      -0.02074186       0.03169543       0.01048778
O       -1.21327311       5.06211524      10.35887784       1.12489662      -0.06829412       0.28891975
O        7.70900718       2.50943871       1.09796439      -0.19850216       0.39281323      -1.70748478
O        7.60415268       2.57608792       6.64980125       0.11552369      -0.07345265       0.10142324
O        2.79777699       6.01396077       1.68922766       0.13270171      -0.28237517      -1.46571035
O       -1.11005738       5.44120727       4.73155379      -0.01347021       0.04605399       0.00929589
O        5.25339209       6.76922326       1.09796439      -0.19627951       0.39077050      -1.70537945
O        5.16154354       6.82787332       6.62081050       0.03564048      -0.04112044       0.02308528
O        3.65145868       5.04377289      10.33659151       0.58743705       0.33171255       0.13500915
O        3.84938974       2.86987700       9.03435030       0.01087401      -0.08265547      -0.09263137
F        4.11481133       3.60656592      13.82056370       1.51424025      -0.57862186       1.94420476
F        3.54404595       2.65390320      12.15823950      -0.16221448      -1.80845381      -1.94442647
F        0.61176663       2.99271952      12.71651134      -0.62775256      -0.95948089       0.70523222
F        3.25669028       1.40173655      14.10724775      -0.35919117      -0.53734536       0.52309436
Si       4.76061766       4.11328092       9.54069964      -0.12684846      -0.15128518       0.17081550
Si      -0.17508127       4.27347992       4.09496200      -0.00362300      -0.00894339       0.00978558
Si      -1.20168029       6.53619944       5.92302077      -0.03672519      -0.01592972       0.00354331
Si       7.24278886      -0.12800567       9.57296187      -0.01973931       0.01990664       0.03025194
Si       4.73984146       4.26965342       4.09567781      -0.00666404      -0.00006326       0.03272024
Si       1.24372290       6.20483796       7.73354336      -0.04189026      -0.34694469       0.24360756
Si       1.31188241       6.25180632       2.29942607      -0.28604619       0.08254243      -0.57601493
Si       3.69837829       1.90782432       7.72016434      -0.03488118       0.07613377       0.09836403
Si       6.17717684       2.27709000       5.93011367      -0.04298217      -0.02407795       0.01691074
Si       2.27890033       0.01411864       4.09266842      -0.00894916       0.01336235       0.04116618
Si       3.71712690       6.53689433       5.92440705       0.01058986       0.03305113      -0.01309957
Si       0.11004998       4.22497555       9.77944180      -2.10928111      -0.02601113      -2.83468454
Si       1.25030753       2.27329722       5.91936311       0.00293417      -0.01450647       0.05405605
Si       7.19536679       0.01151155       4.09445311       0.00278696       0.00684032       0.03014194
Si      -1.14373268       1.99202177       2.29942607      -0.27533892       0.09734155      -0.55995355
Si      -1.19713309       1.94334913       7.75426485       0.45211819       0.70235973       0.82218278
Si      -3.59934778       6.25180632       2.29942607      -0.27586335       0.10231821      -0.57321060
Si      -3.66473080       6.17931764       7.72812937      -0.02482593      -0.07044819      -0.02959986
Si       3.76749750       1.99202177       2.29942607      -0.27908633       0.09496520      -0.57848274
Si       2.31203439      -0.14580163       9.55949645      -0.29678703       0.55565235       0.35764057
P        4.45720549       2.07057026      13.34947631      -0.96786652       2.84965572      -0.45528313
90
Lattice="9.8224603672817 0.0 0.0 -4.911230183640904 8.519569098152305 0.0 5.83e-14 0.0360251379324295 26.999979658241696" Properties=species:S:1:pos:R:3:forces:R:3 energy=-619.8029874967625 stress="-0.0027521753193867887 -0.0019208723841061537 -0.003930435677158013 -0.0019208723841061537 -0.0005450848580079427 -0.00045284799048039967 -0.003930435677158013 -0.00045284799048039967 0.007544668524468964" free_energy=-619.8029874967625 pbc="T T F"
H        0.34216190       1.75336490       0.68922799       0.27360044       0.02702702       1.64537767
H       -0.57617450       8.23611561      10.53778709       0.04595709       0.00668769      -0.01059026
H        0.50131430       3.09059616      11.78279544       0.56699452       0.77161099       0.66110848
H       -1.20945468       6.05848626      10.47388906       0.15050114      -0.34344053       0.08225526
H        5.25339209       6.76841193       0.09796472       0.39957170      -0.15611378       1.93949679
H        2.35547107       4.54911076      10.87234079      -0.83572079      -0.50856733      -1.17983325
H        0.34216190       6.76841193       0.09796472       0.39974936      -0.15564672       1.93965415
H        2.79777699       6.01314945       0.68922799       0.27474420       0.02685624       1.64672974
H        4.36171321       8.20096357      10.52420830      -0.07668252       0.00064156       0.03709598
H        6.78793963       4.01811055      10.52149259       0.10292942      -0.01768053      -0.05764059
H        3.70219726       6.03724204      10.43986891       0.12506057       0.31714054      -0.01234502
H        7.70900718       2.50862738       0.09796472       0.40021324      -0.15617408       1.94017725
H        2.79777699       2.50862738       0.09796472       0.39947951      -0.15605253       1.93957309
H       -2.11345319       6.01314945       0.68922799       0.27490129       0.02672759       1.64404962
H        1.41223781       1.95301990      10.90605064      -0.08053639      -4.49722073      -2.42696527
H        5.25339209       1.75336490       0.68922799       0.27490210       0.02659435       1.64546689
H        6.23877790       1.81041006      10.43713852       0.00940042      -0.01622762      -0.00280033
O        1.22804192       0.87690059      10.37634398       1.10792077       3.06517295       1.35432382
O       -0.96778535       2.91834599       9.10097703       1.47099420       0.57814161       0.65039962
O       -3.57132940       7.36380125       3.48815814      -0.21289693      -0.15895102      -0.00370041
O        3.50058487       7.72353003      10.54655471       0.06277711       0.01982977      -0.03654927
O        6.21252297       0.81781026      10.41261356       0.01603312       0.01594007       0.03675323
O        1.33990079       7.36380125       3.48815814      -0.18349663      -0.09076011       0.04588240
O       -3.51238403       7.12600435       9.04911484      -0.03833715       0.41551887       0.21995610
O        1.38606891       7.17315609       9.04429561       0.02276525       0.00573953      -0.01109893
O        3.79551588       3.10401670       3.48815814      -0.18296655      -0.12072356       0.02858446
O        0.34216190       6.76922326       1.09796439      -0.19128726       0.39120278      -1.69255630
O       -1.72858908       7.94473215       5.32100947       0.02620322      -0.04281473       0.02692106
O        0.24318912       6.82957557       6.61962697       0.06056868      -0.09371979       0.10319461
O        3.19535619       7.94134823       5.31443906       0.02150521      -0.02168644       0.00399042
O        2.70035478       2.55021287       6.61491750       0.01132279       0.00636932      -0.01132043
O        2.79777699       2.50943871       1.09796439      -0.19102298       0.39065711      -1.69109500
O        2.70812204       5.97405938       7.07771386      -0.08360303       0.00740538       0.04935072
O        0.34216190       1.75417623       1.68922766       0.12665710      -0.28292368      -1.45794750
O        5.25339209       1.75417623       1.68922766       0.12535789      -0.28258116      -1.45418053
O        0.73160037       3.68480881       5.31864189       0.04964859      -0.02419908       0.03075497
O        5.93257987       3.53254760      10.55779172      -0.01143001       0.03394161       0.03430529
O       -2.20805970       5.95155464       7.06704968      -0.04925188      -0.00301980       0.02383257
O        1.40977712       4.08280967      10.76869112      -1.88883645      -0.57830967      -1.15368309
O        5.15839999       1.68424144       7.06391819      -0.02415272       0.00016728       0.01733313
O        3.80346366       5.43217650       4.74247542      -0.00498038       0.03287493       0.02571303
O       -1.11571431       3.10401670       3.48815814      -0.19514938      -0.11262043       0.02399206
O        1.34005170       1.17947583       4.72629767      -0.00923416       0.06009935       0.03118881
O        7.99525708       0.54477229       8.30061439       0.13730010       0.33946940      -0.08235781
O        3.08046764       0.51515804       8.28112955      -0.09591767      -0.07371349       0.09117932
O        0.77379370       4.85167455       2.91987818      -0.13933902       0.04930679       0.18342359
O        0.63279900       4.80550824       8.31891355       0.42015663       0.37275277      -0.41216424
O        5.64915102       3.68106407       5.31882720       0.03124209      -0.03781684       0.03953777
O        0.24904770       1.69311796       7.06191803      -0.17153872      -0.07255693       0.05068812
O        5.68502388       4.85167455       2.91987818      -0.14694349       0.03883973       0.19995220
O       -1.43683102       7.76514454      10.57404491      -0.12217879       0.05642143      -0.01961237
O        5.51073584       4.79067498       8.27065257      -0.07746237       0.06874512       0.06683295
O       -2.11345319       6.01396077       1.68922766       0.12412748      -0.28390174      -1.45481034
O        3.22940879       0.59189000       2.91987818      -0.12548319       0.04246876       0.17907136
O        8.14063897       0.59189000       2.91987818      -0.11316829       0.05732666       0.13565462
O        6.27032707       1.18186037       4.73944970      -0.01315855       0.03921447       0.02922921
O       -1.19526571       5.06040592      10.36319278       0.35141310       0.31217445       0.33584527
O        7.70900718       2.50943871       1.09796439      -0.19280770       0.39137129      -1.69327463
O        7.60573589       2.57495564       6.65117654       0.25148668      -0.06069731       0.31482256
O        2.79777699       6.01396077       1.68922766       0.12711357      -0.28161805      -1.45471671
O       -1.11025090       5.44188007       4.73163547      -0.00830923       0.02214501       0.01936902
O        5.25339209       6.76922326       1.09796439      -0.19105571       0.38896616      -1.69173521
O        5.16205757       6.82724670       6.62113593       0.02954154      -0.02185655       0.02882784
O        3.65989793       5.04886137      10.33902966       0.28148434       0.11055096       0.24669596
O        3.84958338       2.86876952       9.03308899       0.04260674       0.00975523      -0.00603784
F        4.13856170       3.59934889      13.85212229       0.88940969       0.01507656       1.54091525
F        3.53606511       2.62838551      12.12032292       0.09193963      -1.39622489      -1.03039112
F        0.60222634       2.97808847      12.72707133      -0.59875120      -0.91676473       0.82161761
F        3.25133419       1.39338902      14.11519169       0.13275620      -0.03154040       0.09305917
Si       4.75918365       4.11067263       9.54287936      -0.02456618      -0.13985685       0.00065086
Si      -0.17513196       4.27334120       4.09523593      -0.00985918       0.01060087      -0.05892379
Si      -1.20220187       6.53589644       5.92321639       0.05092177       0.01683464      -0.06038672
Si       7.24250061      -0.12752634       9.57319018      -0.05986960      -0.04101546       0.00298357
Si       4.73975378       4.26964988       4.09624681      -0.00910342       0.00275193      -0.03546439
Si       1.24294404       6.19940868       7.73722596      -0.02076428      -0.17855837       0.08035378
Si       1.31188241       6.25180632       2.29942607      -0.28109910       0.08810548      -0.60955061
Si       3.69783360       1.90887327       7.72152524      -0.02348196       0.03968116      -0.01101616
Si       6.17667282       2.27674487       5.93047025      -0.00685376      -0.02344754      -0.01303621
Si       2.27876083       0.01433648       4.09337592       0.00509007      -0.00028862      -0.01611747
Si       3.71725982       6.53740088       5.92429077      -0.02366381       0.01213955      -0.03186726
Si       0.06982722       4.22585616       9.73006811      -1.03690420      -0.57138323      -1.24193348
Si       1.25021863       2.27308266       5.92033105       0.03968994       0.01008675      -0.08385281
Si       7.19540066       0.01163452       4.09498168       0.00110485      -0.00404409      -0.03423028
Si      -1.14373268       1.99202177       2.29942607      -0.27367280       0.09299512      -0.59928674
Si      -1.19016609       1.95425071       7.76697707       0.31960741       0.64496939       0.74492689
Si      -3.59934778       6.25180632       2.29942607      -0.27183814       0.10284153      -0.60843622
Si      -3.66493424       6.17830192       7.72764167      -0.00908801       0.05258675      -0.07748862
Si       3.76749750       1.99202177       2.29942607      -0.27465833       0.09596963      -0.61408491
Si       2.30767646      -0.13749669       9.56488692      -0.46413451       0.90499821       0.65337967
P        4.44722310       2.11046010      13.34898246      -1.08149479       1.33922561      -0.54339601
90