136
Lattice="11.6535095964132 0.0 0.0 0.0 10.0922353537395 0.0 0.0 0.0 24.290024512876798" Properties=species:S:1:pos:R:3:forces:R:3 energy=-707.6685465303384 stress="0.000360375006787614 3.180272231777028e-05 -0.002158677029610256 3.180272231777028e-05 -0.0010598575760813885 -0.0025927019839820137 -0.002158677029610256 -0.0025927019839820137 0.0012021985617902665" free_energy=-707.6685465303384 pbc="T T F"
H        0.84125639       0.48569960       5.14501226      -0.03043655      -0.01762508       0.00722520
H        7.90121223       7.92584546       3.80430953       0.01671332       0.00983846       0.03647961
H        4.98783483       2.87972778       3.80430953       0.01670760       0.00983551       0.03648199
H       10.81458963       2.87972778       3.80430953       0.01670826       0.00983590       0.03648221
H        3.75229736       2.16638989       8.44932179       0.16967770       0.09585842      -0.22829836
H        9.57905216       2.16638989       8.44932179       0.16968652       0.09586292      -0.22829546
H        0.83891996       7.21250757       8.44932179       0.16967728       0.09585765      -0.22829899
H        6.66567476       7.21250757       8.44932179       0.16967841       0.09585827      -0.22829839
H        2.91337740       9.37889746       3.80430953       0.00016390      -0.01939147       0.03648032
H        7.90121223       2.16638989       8.44932179      -0.16785448       0.09901631      -0.22829853
H        4.98783483       7.21250757       8.44932179      -0.16786068       0.09901973      -0.22829613
H       10.81458963       7.21250757       8.44932179      -0.16786003       0.09901944      -0.22829656
H        2.91337740       1.68203923       7.07717563       0.00000006       0.00000020       0.04128681
H        8.74013220       1.68203923       7.07717563       0.00000008       0.00000057       0.04128735
H       -0.00000000       6.72815690       7.07717563       0.00000044      -0.00000033       0.04128776
H        5.82675480       6.72815690       7.07717563       0.00000018      -0.00000020       0.04128770
H        2.07445743       2.16638989       8.44932179      -0.16785639       0.09901771      -0.22829759
H        6.66801119       0.48569960       5.14501226      -0.03044067      -0.01762671       0.00722629
H        3.75463379       5.53181728       5.14501226      -0.03044067      -0.01762695       0.00722635
H        9.58138859       5.53181728       5.14501226      -0.03043465      -0.01762391       0.00722392
H        2.91337740       0.71333789       8.44932179      -0.00182352      -0.19487679      -0.22829717
H        8.74013220       0.71333789       8.44932179      -0.00182344      -0.19487709      -0.22829674
H       -0.00000000       5.75945557       8.44932179      -0.00182343      -0.19487709      -0.22829771
H        5.82675480       5.75945557       8.44932179      -0.00182335      -0.19487720      -0.22829734
H        0.84125639       9.60653575       0.50000000       0.01606152      -0.00919181       0.28762509
H        6.66801119       9.60653575       0.50000000       0.01605795      -0.00919038       0.28762583
H        3.75463379       4.56041807       0.50000000       0.01605926      -0.00919158       0.28762509
H        9.58138859       4.56041807       0.50000000       0.01606552      -0.00919438       0.28762309
H        2.91337740       8.41019613       2.43216338      -0.00000007      -0.00000026       0.00765286
H        8.74013220       8.41019613       2.43216338       0.00000044      -0.00000052       0.00765328
H       -0.00000000       3.36407845       2.43216338       0.00000039       0.00000018       0.00765334
H        5.82675480       3.36407845       2.43216338      -0.00000003       0.00000000       0.00765280
H        7.89887581       5.53181728       5.14501226       0.03048561      -0.01754982       0.00722650
H        8.74013220       9.37889746       3.80430953       0.00016373      -0.01939195       0.03648037
H       -0.00000000       4.33277979       3.80430953       0.00016398      -0.01939105       0.03648062
H        5.82675480       4.33277979       3.80430953       0.00016409      -0.01939064       0.03648080
H        4.98549841       9.60653575       0.50000000      -0.01599453      -0.00931418       0.28762330
H       10.81225320       9.60653575       0.50000000      -0.01599942      -0.00931603       0.28762205
H        2.07212101       4.56041807       0.50000000      -0.01599328      -0.00931394       0.28762386
H        7.89887581       4.56041807       0.50000000      -0.01599036      -0.00931177       0.28762521
H        0.00000000       0.00000000       1.86675895       0.00000014      -0.00000017      -0.02326795
H        5.82675480       0.00000000       1.86675895       0.00000051      -0.00000015      -0.02326741
H        2.91337740       5.04611768       1.86675895      -0.00000018      -0.00000008      -0.02326795
H        8.74013220       5.04611768       1.86675895       0.00000009       0.00000003      -0.02326783
H        0.00000000       0.00000000       6.51177121       0.00000018       0.00000030       0.23004539
H        5.82675480       0.00000000       6.51177121       0.00000007       0.00000020       0.23004497
H        2.91337740       5.04611768       6.51177121       0.00000008       0.00000006       0.23004545
H        8.74013220       5.04611768       6.51177121      -0.00000009      -0.00000018       0.23004551
H        8.74013220       4.07471847       5.14501226      -0.00004474       0.03517362       0.00722554
H        2.07445743       7.92584546       3.80430953       0.01671106       0.00983661       0.03648066
H        2.07212101       5.53181728       5.14501226       0.03048334      -0.01754842       0.00722517
H       10.81225320       0.48569960       5.14501226       0.03047601      -0.01754467       0.00722313
H        4.98549841       0.48569960       5.14501226       0.03047947      -0.01754553       0.00722383
H        5.82675480       0.97139921       0.50000000      -0.00006949       0.01850522       0.28762443
H       -0.00000000       0.97139921       0.50000000      -0.00006962       0.01850486       0.28762455
H        8.74013220       6.01751689       0.50000000      -0.00006947       0.01850343       0.28762556
H        2.91337740       6.01751689       0.50000000      -0.00006959       0.01850278       0.28762562
H        2.91337740       4.07471847       5.14501226      -0.00004488       0.03517290       0.00722532
H       -0.00000000       9.12083614       5.14501226      -0.00004473       0.03517612       0.00722614
H        5.82675480       9.12083614       5.14501226      -0.00004472       0.03517690       0.00722668
H        3.75229736       7.92584546       3.80430953      -0.01687676       0.00955444       0.03647986
H        9.57905216       7.92584546       3.80430953      -0.01686937       0.00955027       0.03648209
H        0.83891996       2.87972778       3.80430953      -0.01687801       0.00955528       0.03647926
H        6.66567476       2.87972778       3.80430953      -0.01687658       0.00955474       0.03648017
N        0.00000000       0.00000000       0.84163042       0.00000736       0.00000305      -0.47979104
N        2.91337740       8.41019613       3.45939454       0.00000145       0.00000118      -0.09162381
N        8.74013220       5.04611768       0.84163042      -0.00000553       0.00000302      -0.47979295
N        2.91337740       5.04611768       0.84163042       0.00000284       0.00000283      -0.47979331
N        5.82675480       0.00000000       0.84163042       0.00000569      -0.00000028      -0.47979372
N        8.74013220       8.41019613       3.45939454      -0.00000831       0.00000341      -0.09162558
N        8.74013220       5.04611768       5.48664268      -0.00000568       0.00000004      -0.06862821
N        2.91337740       5.04611768       5.48664268       0.00000175       0.00000202      -0.06862881
N        5.82675480       0.00000000       5.48664268       0.00000598      -0.00000485      -0.06862808
N        0.00000000       0.00000000       5.48664268       0.00000548      -0.00000672      -0.06862623
N        5.82675480       6.72815690       8.10440679       0.00000559      -0.00000047       0.56284497
N       -0.00000000       6.72815690       8.10440679       0.00000572       0.00000011       0.56284587
N        8.74013220       1.68203923       8.10440679      -0.00000838      -0.00000214       0.56284366
N        2.91337740       1.68203923       8.10440679       0.00000153       0.00000086       0.56284658
N        5.82675480       3.36407845       3.45939454       0.00000461       0.00000043      -0.09162531
N       -0.00000000       3.36407845       3.45939454       0.00000531       0.00000000      -0.09162534
F        5.82675480       4.77145700       5.96166062      -0.00092453       0.14452756      -0.23689937
F       -0.00000000       4.77145700       5.96166062      -0.00092441       0.14452803      -0.23690015
F        8.74013220       9.81757467       5.96166062      -0.00092507       0.14453071      -0.23690104
F        2.91337740       9.81757467       5.96166062      -0.00092442       0.14453137      -0.23690125
F        7.04760707       4.06893784       7.94608474      -0.06752794      -0.03863892      -0.13320139
F        1.22085227       4.06893784       7.94608474      -0.06752150      -0.03863770      -0.13319880
F        9.96098447       9.11505552       7.94608474      -0.06752550      -0.03863603      -0.13319969
F        4.13422967       9.11505552       7.94608474      -0.06752747      -0.03863668      -0.13320118
F        7.04558037       7.43184618       1.31664836       0.09503236       0.05637657       0.01284837
F        1.21882557       7.43184618       1.31664836       0.09503707       0.05637782       0.01284682
F        9.95895777       2.38572850       1.31664836       0.09503227       0.05637521       0.01284790
F        4.13220297       2.38572850       1.31664836       0.09503254       0.05637511       0.01284781
F        5.82675480       8.13787568       3.30107248       0.00051756       0.03228336       0.06668116
F       -0.00000000       8.13787568       3.30107248       0.00051845       0.03228494       0.06668241
F        8.74013220       3.09175800       3.30107248       0.00051664       0.03228169       0.06668092
F        2.91337740       3.09175800       3.30107248       0.00051776       0.03228184       0.06668110
F        1.69455183       7.70650686       5.96166062      -0.12470376      -0.07306488      -0.23690078
F        7.52130662       7.70650686       5.96166062      -0.12470263      -0.07306491      -0.23689988
F        4.60792923       2.66038918       5.96166062      -0.12470379      -0.07306564      -0.23690015
F       10.43468402       2.66038918       5.96166062      -0.12470460      -0.07306547      -0.23690036
F        2.91337740       7.00047735       7.94608474       0.00030260       0.07779955      -0.13320157
F        8.74013220       7.00047735       7.94608474       0.00030167       0.07780033      -0.13320193
F       -0.00000000       1.95435967       7.94608474       0.00030350       0.07779818      -0.13320017
F        5.82675480       1.95435967       7.94608474       0.00030258       0.07779932      -0.13320065
F       10.43468402       7.43184618       1.31664836      -0.09634071       0.05411198       0.01284861
F        4.60792923       7.43184618       1.31664836      -0.09634030       0.05411292       0.01284790
F        7.52130662       2.38572850       1.31664836      -0.09633907       0.05411130       0.01284784
F        1.69455183       2.38572850       1.31664836      -0.09633919       0.05411124       0.01284781
F        7.04760707       6.02329751       3.30107248       0.02769859      -0.01658845       0.06668048
F        1.22085227       6.02329751       3.30107248       0.02770336      -0.01658888       0.06668182
F        9.96098447       0.97717984       3.30107248       0.02770044      -0.01659034       0.06668202
F        4.13422967       0.97717984       3.30107248       0.02769838      -0.01658901       0.06668113
F        4.13220297       7.70650686       5.96166062       0.12562808      -0.07146286      -0.23690021
F        9.95895777       7.70650686       5.96166062       0.12562891      -0.07146326      -0.23690131
F        1.21882557       2.66038918       5.96166062       0.12563219      -0.07146473      -0.23690080
F        7.04558037       2.66038918       5.96166062       0.12562736      -0.07146262      -0.23689920
F        1.69252513       9.11505552       7.94608474       0.06722461      -0.03915965      -0.13320059
F        7.51927992       9.11505552       7.94608474       0.06722515      -0.03916034      -0.13320115
F        4.60590252       4.06893784       7.94608474       0.06722467      -0.03916174      -0.13320091
F       10.43265732       4.06893784       7.94608474       0.06722253      -0.03916171      -0.13320079
F        1.69252513       0.97717984       3.30107248      -0.02821581      -0.01569342       0.06668113
F        7.51927992       0.97717984       3.30107248      -0.02821623      -0.01569252       0.06668086
F        4.60590252       6.02329751       3.30107248      -0.02821685      -0.01569262       0.06668086
F       10.43265732       6.02329751       3.30107248      -0.02821873      -0.01569225       0.06668059
F        2.91337740       0.27466068       1.31664836       0.00130738      -0.11048706       0.01284799
F        8.74013220       0.27466068       1.31664836       0.00130664      -0.11048670       0.01284799
F       -0.00000000       5.32077836       1.31664836       0.00130788      -0.11048969       0.01284679
F        5.82675480       5.32077836       1.31664836       0.00130712      -0.11048852       0.01284811
Si       5.82675480       3.36407845       6.94380634       0.00000102       0.00000130       0.98116568
Si      -0.00000000       3.36407845       6.94380634      -0.00000660       0.00000205       0.98116544
Si       8.74013220       8.41019613       6.94380634      -0.00000314      -0.00000588       0.98116926
Si       2.91337740       8.41019613       6.94380634       0.00000025      -0.00000602       0.98116973
Si       5.82675480       6.72815690       2.29879408       0.00000121      -0.00000244      -0.59706812
Si      -0.00000000       6.72815690       2.29879408      -0.00000629      -0.00000313      -0.59706872
Si       8.74013220       1.68203923       2.29879408      -0.00000163       0.00000099      -0.59706901
Si       2.91337740       1.68203923       2.29879408      -0.00000043       0.00000086      -0.59706854
136
Lattice="11.6535095964132 0.0 0.0 0.0 10.0922353537395 0.0 0.0 0.0 24.290024512876798" Properties=species:S:1:pos:R:3:forces:R:3 energy=-707.7442618559743 stress="0.0003937082155160501 0.0005117907806866417 0.000334304324385872 0.0005117907806866417 -0.0007721609607266066 -0.0035424651724335655 0.000334304324385872 -0.0035424651724335655 0.0018149573827323875" free_energy=-707.7442618559743 pbc="T T F"
H        0.84082158       0.48544782       5.14511547       0.00082016       0.00049300      -0.00168693
H        7.90121223       7.92584546       3.80430953       0.01687346       0.00986491       0.04507860
H        4.98783483       2.87972778       3.80430953       0.01686797       0.00986175       0.04508038
H       10.81458963       2.87972778       3.80430953       0.01686922       0.00986259       0.04508071
H        3.75472133       2.16775930       8.44606038       0.17090895       0.09657896      -0.15062451
H        9.58147626       2.16775936       8.44606042       0.17090349       0.09657583      -0.15062676
H        0.84134393       7.21387696       8.44606037       0.17090677       0.09657771      -0.15062614
H        6.66809874       7.21387697       8.44606038       0.17090746       0.09657762      -0.15062563
H        2.91337740       9.37889746       3.80430953       0.00010640      -0.01954444       0.04507901
H        7.89881431       2.16780441       8.44606038      -0.16909086       0.09971931      -0.15062574
H        4.98543682       7.21392214       8.44606041      -0.16908869       0.09971964      -0.15062578
H       10.81219163       7.21392213       8.44606041      -0.16910025       0.09972455      -0.15062235
H        2.91337740       1.68203923       7.07776544       0.00000056       0.00000015       0.27781065
H        8.74013220       1.68203923       7.07776545      -0.00000039      -0.00000036       0.27780880
H        0.00000001       6.72815690       7.07776546       0.00000029       0.00000020       0.27781142
H        5.82675480       6.72815690       7.07776546       0.00000159      -0.00000014       0.27780880
H        2.07205949       2.16780443       8.44606039      -0.16909092       0.09972041      -0.15062556
H        6.66757632       0.48544779       5.14511549       0.00082480       0.00049482      -0.00168885
H        3.75419892       5.53156547       5.14511549       0.00082230       0.00049411      -0.00168820
H        9.58095381       5.53156551       5.14511546       0.00081998       0.00049226      -0.00168772
H        2.91335135       0.71055394       8.44606040      -0.00181465      -0.19629922      -0.15062496
H        8.74010615       0.71055393       8.44606040      -0.00181591      -0.19630047      -0.15062483
H       -0.00002605       5.75667161       8.44606039      -0.00181579      -0.19629219      -0.15062749
H        5.82672875       5.75667161       8.44606040      -0.00181404      -0.19629278      -0.15062742
H        0.84125639       9.60653575       0.50000000       0.01587622      -0.00908466       0.28929426
H        6.66801119       9.60653575       0.50000000       0.01587234      -0.00908317       0.28929504
H        3.75463379       4.56041807       0.50000000       0.01587365      -0.00908466       0.28929423
H        9.58138859       4.56041807       0.50000000       0.01588021      -0.00908761       0.28929235
H        2.91337740       8.41019613       2.43216338       0.00000003      -0.00000024       0.01215546
H        8.74013220       8.41019613       2.43216338       0.00000029      -0.00000050       0.01215528
H       -0.00000000       3.36407845       2.43216338       0.00000037       0.00000018       0.01215498
H        5.82675480       3.36407845       2.43216338      -0.00000006       0.00000000       0.01215516
H        7.89931131       5.53156657       5.14511549      -0.00084192       0.00046649      -0.00168870
H        8.74013220       9.37889746       3.80430953       0.00010645      -0.01954450       0.04507919
H       -0.00000000       4.33277979       3.80430953       0.00010653      -0.01954366       0.04507889
H        5.82675480       4.33277979       3.80430953       0.00010662      -0.01954337       0.04507918
H        4.98549841       9.60653575       0.50000000      -0.01580874      -0.00920676       0.28929271
H       10.81225320       9.60653575       0.50000000      -0.01581387      -0.00920900       0.28929104
H        2.07212101       4.56041807       0.50000000      -0.01580779      -0.00920649       0.28929307
H        7.89887581       4.56041807       0.50000000      -0.01580391      -0.00920444       0.28929432
H        0.00000000       0.00000000       1.86675895       0.00000017      -0.00000026      -0.02030202
H        5.82675480       0.00000000       1.86675895       0.00000026      -0.00000005      -0.02030238
H        2.91337740       5.04611768       1.86675895      -0.00000018      -0.00000011      -0.02030178
H        8.74013220       5.04611768       1.86675895       0.00000008       0.00000005      -0.02030202
H        0.00000000       0.00000000       6.51505757      -0.00000021      -0.00000023       0.04624033
H        5.82675480       0.00000000       6.51505756       0.00000124      -0.00000005       0.04623950
H        2.91337740       5.04611768       6.51505757       0.00000036      -0.00000020       0.04623986
H        8.74013220       5.04611767       6.51505757      -0.00000030      -0.00000028       0.04623944
H        8.74013156       4.07522095       5.14511548       0.00001716      -0.00095827      -0.00168779
H        2.07445743       7.92584546       3.80430953       0.01687161       0.00986339       0.04507964
H        2.07255648       5.53156659       5.14511547      -0.00083698       0.00046416      -0.00168759
H       10.81268858       0.48544897       5.14511544      -0.00084246       0.00046604      -0.00168859
H        4.98593383       0.48544895       5.14511545      -0.00083245       0.00046223      -0.00168601
H        5.82675480       0.97139921       0.50000000      -0.00006928       0.01829109       0.28929360
H       -0.00000000       0.97139921       0.50000000      -0.00006939       0.01829056       0.28929355
H        8.74013220       6.01751689       0.50000000      -0.00006943       0.01828883       0.28929480
H        2.91337740       6.01751689       0.50000000      -0.00006948       0.01828877       0.28929450
H        2.91337676       4.07522094       5.14511548       0.00001705      -0.00095839      -0.00168797
H       -0.00000064       9.12133866       5.14511549       0.00001567      -0.00096065      -0.00168836
H        5.82675416       9.12133867       5.14511549       0.00001807      -0.00096089      -0.00168857
H        3.75229736       7.92584546       3.80430953      -0.01698010       0.00968018       0.04507869
H        9.57905216       7.92584546       3.80430953      -0.01697116       0.00967580       0.04508146
H        0.83891996       2.87972778       3.80430953      -0.01698063       0.00968108       0.04507788
H        6.66567476       2.87972778       3.80430953      -0.01697920       0.00968021       0.04507852
N        0.00000000       0.00000000       0.84163042       0.00000756       0.00000342      -0.48321522
N        2.91337740       8.41019613       3.45939454       0.00000128       0.00000125      -0.10322459
N        8.74013220       5.04611768       0.84163042      -0.00000612       0.00000316      -0.48321760
N        2.91337740       5.04611768       0.84163042       0.00000291       0.00000264      -0.48321814
N        5.82675480       0.00000000       0.84163042       0.00000583      -0.00000097      -0.48321760
N        8.74013220       8.41019613       3.45939454      -0.00000845       0.00000420      -0.10322657
N        8.74013212       5.04611768       5.48566228       0.00000545      -0.00000002       0.12647095
N        2.91337742       5.04611771       5.48566227      -0.00000364       0.00000028       0.12647023
N        5.82675488      -0.00000007       5.48566228      -0.00001180       0.00000373       0.12647044
N        0.00000008      -0.00000010       5.48566231       0.00000660       0.00000153       0.12647013
N        5.82675488       6.72815690       8.11244744      -0.00000665      -0.00000368       0.09018808
N        0.00000008       6.72815690       8.11244745       0.00000921      -0.00000972       0.09018264
N        8.74013208       1.68203920       8.11244742       0.00000430       0.00000557       0.09018609
N        2.91337742       1.68203924       8.11244746      -0.00000440      -0.00000027       0.09018183
N        5.82675480       3.36407845       3.45939454       0.00000502       0.00000074      -0.10322565
N       -0.00000000       3.36407845       3.45939454       0.00000541       0.00000012      -0.10322486
F        5.82674159       4.77352168       5.95827634      -0.00087735       0.03198214      -0.11297704
F       -0.00001321       4.77352168       5.95827633      -0.00087814       0.03198059      -0.11297642
F        8.74011898       9.81963940       5.95827632      -0.00087706       0.03198459      -0.11297770
F        2.91336419       9.81963941       5.95827632      -0.00087592       0.03198441      -0.11297767
F        7.04664239       4.06838586       7.94418186      -0.00176675      -0.00067334      -0.04396279
F        1.21988768       4.06838587       7.94418190      -0.00176693      -0.00067378      -0.04396318
F        9.96001982       9.11450357       7.94418188      -0.00177075      -0.00067456      -0.04396470
F        4.13326500       9.11450356       7.94418186      -0.00176735      -0.00067369      -0.04396339
F        7.04558037       7.43184618       1.31664836       0.09676629       0.05739278       0.00682359
F        1.21882557       7.43184618       1.31664836       0.09677100       0.05739449       0.00682156
F        9.95895777       2.38572850       1.31664836       0.09676594       0.05739163       0.00682260
F        4.13220297       2.38572850       1.31664836       0.09676653       0.05739175       0.00682269
F        5.82675480       8.13787568       3.30107248       0.00045642       0.02919969       0.05678469
F       -0.00000000       8.13787568       3.30107248       0.00045735       0.02920067       0.05678514
F        8.74013220       3.09175800       3.30107248       0.00045582       0.02919826       0.05678439
F        2.91337740       3.09175800       3.30107248       0.00045656       0.02919865       0.05678466
F        1.69277034       7.70546307       5.95827632      -0.02726002      -0.01675107      -0.11297528
F        7.51952516       7.70546307       5.95827634      -0.02725967      -0.01675130      -0.11297680
F        4.60614774       2.65934538       5.95827633      -0.02725985      -0.01675148      -0.11297680
F       10.43290253       2.65934539       5.95827633      -0.02725859      -0.01675041      -0.11297636
F        2.91338172       7.00158877       7.94418186       0.00030135       0.00186629      -0.04396130
F        8.74013651       7.00158878       7.94418185       0.00030162       0.00186593      -0.04396160
F        0.00000434       1.95547108       7.94418188       0.00030036       0.00186892      -0.04396345
F        5.82675912       1.95547109       7.94418187       0.00030083       0.00186891      -0.04396378
F       10.43468402       7.43184618       1.31664836      -0.09808862       0.05510554       0.00682311
F        4.60792923       7.43184618       1.31664836      -0.09808800       0.05510631       0.00682263
F        7.52130662       2.38572850       1.31664836      -0.09808678       0.05510442       0.00682269
F        1.69455183       2.38572850       1.31664836      -0.09808684       0.05510469       0.00682218
F        7.04760707       6.02329751       3.30107248       0.02505864      -0.01499387       0.05678368
F        1.22085227       6.02329751       3.30107248       0.02506401      -0.01499441       0.05678573
F        9.96098447       0.97717984       3.30107248       0.02506016      -0.01499542       0.05678487
F        4.13422967       0.97717984       3.30107248       0.02505885      -0.01499398       0.05678409
F        4.13399766       7.70548596       5.95827633       0.02813919      -0.01523117      -0.11297686
F        9.96075247       7.70548595       5.95827632       0.02813445      -0.01523114      -0.11297481
F        1.22062032       2.65936825       5.95827632       0.02813624      -0.01523111      -0.11297615
F        7.04737505       2.65936828       5.95827635       0.02813683      -0.01523152      -0.11297734
F        1.69348548       9.11449609       7.94418187       0.00146531      -0.00119498      -0.04396190
F        7.52024028       9.11449608       7.94418186       0.00146543      -0.00119483      -0.04396243
F        4.60686288       4.06837839       7.94418187       0.00146590      -0.00119486      -0.04396306
F       10.43361764       4.06837839       7.94418187       0.00146465      -0.00119513      -0.04396285
F        1.69252513       0.97717984       3.30107248      -0.02551486      -0.01420439       0.05678418
F        7.51927992       0.97717984       3.30107248      -0.02551478      -0.01420396       0.05678406
F        4.60590252       6.02329751       3.30107248      -0.02551585      -0.01420417       0.05678412
F       10.43265732       6.02329751       3.30107248      -0.02551838      -0.01420399       0.05678442
F        2.91337740       0.27466068       1.31664836       0.00132079      -0.11249692       0.00682290
F        8.74013220       0.27466068       1.31664836       0.00132017      -0.11249626       0.00682359
F       -0.00000000       5.32077836       1.31664836       0.00132158      -0.11249978       0.00682147
F        5.82675480       5.32077836       1.31664836       0.00132079      -0.11249870       0.00682287
Si       5.82675481       3.36407847       6.95782299      -0.00000041      -0.00000057       0.35267254
Si      -0.00000009       3.36407848       6.95782299       0.00000231      -0.00000011       0.35267054
Si       8.74013215       8.41019604       6.95782304       0.00000493       0.00000087       0.35266974
Si       2.91337740       8.41019604       6.95782305      -0.00000131       0.00000023       0.35266825
Si       5.82675480       6.72815690       2.29879408       0.00000134      -0.00000176      -0.56496731
Si      -0.00000000       6.72815690       2.29879408      -0.00000616      -0.00000213      -0.56496714
Si       8.74013220       1.68203923       2.29879408      -0.00000147       0.00000139      -0.56496791
Si       2.91337740       1.68203923       2.29879408      -0.00000070       0.00000035      -0.56496642
136
Lattice="11.6535095964132 0.0 0.0 0.0 10.0922353537395 0.0 0.0 0.0 24.290024512876798" Properties=species:S:1:pos:R:3:forces:R:3 energy=-707.7749049208574 stress="0.00017616791325762254 0.0003111228160051461 0.0006035877343389211 0.0003111228160051461 -0.0005198776335965357 -0.0032192576399566655 0.0006035877343389211 -0.0032192576399566655 0.0017540960238762611" free_energy=-707.7749049208574 pbc="T T F"
H        0.84073658       0.48539901       5.14510091      -0.01255246      -0.00714036       0.02261341