LAMMPS data file via write_data, version 23 Jun 2022, timestep = 1

90 atoms
5 atom types

0 9.8224603672817 xlo xhi
0 8.519569098152305 ylo yhi
0 26.999979658241696 zlo zhi
-4.911230183640904 5.83e-14 0.0360251379324295 xy xz yz

Masses

1 1.008
2 15.999
3 18.998403163
4 28.085
5 30.973761998

Atoms # atomic

1 1 2.7977769935297903 6.013149448838038 0.689227987674167 0 0 0
2 1 7.709007177170663 2.508627383408963 0.09796471844482468 0 0 0
3 1 3.752281700336866 6.08416520287018 10.449491547458036 0 0 0
4 1 0.34216190170935534 6.768411932485092 0.09796471844485355 0 0 0
5 1 2.797776993529796 2.508627383408952 0.09796471844483609 0 0 0
6 1 5.253392085350239 1.7533648997618965 0.6892279876741497 0 0 0
7 1 -2.1134531901110734 6.013149448838027 0.689227987674178 0 0 0
8 1 1.2428151805792405 1.783995256843868 10.483168521367507 0 0 0
9 1 0.3421619017093677 1.7533648997618856 0.689227987674161 0 0 0
10 1 6.243829183218204 1.8302793031132192 10.384005647578459 0 0 0
11 1 6.806507925212615 4.02580927053702 10.52779325991482 0 0 0
12 1 -0.5919420809387382 8.229420376480427 10.534563378618197 0 0 0
13 1 1.867200901513154 3.959953749741413 10.551338337852155 0 0 0
14 1 5.253392085350218 6.768411932485103 0.09796471844484209 0 0 0
15 1 4.3657047968647955 8.266548202198122 10.522934851885418 0 0 0
16 1 -1.2111378593769757 6.04566410119917 10.4626925944745 0 0 0
17 2 0.6152052956547369 4.816309982458614 8.306104461052806 0 0 0
18 2 8.140638972205938 0.5918899998529171 2.9198781769704114 0 0 0
19 2 7.9937692791771 0.540284009396775 8.267066488503062 0 0 0
20 2 0.7737936967446194 4.851674548929047 2.9198781769704403 0 0 0
21 2 5.638626113655643 3.687255878013471 5.321189680643004 0 0 0
22 2 0.2566268685934557 1.708272851484777 7.0702754075362435 0 0 0
23 2 5.685023880385486 4.8516745489290605 2.9198781769704283 0 0 0
24 2 -1.4529857257595313 7.758978994006483 10.568328674977575 0 0 0
25 2 1.3467669797371635 1.18008382006427 4.734092484854697 0 0 0
26 2 5.5286020801349345 4.8144645616767265 8.26639258044329 0 0 0
27 2 3.7221188474391633 5.09254661961901 10.371678801380128 0 0 0
28 2 3.2294087885650606 0.5918899998529065 2.9198781769704216 0 0 0
29 2 -1.2278963528385984 5.0546498531142285 10.37515320307358 0 0 0
30 2 6.249695017655794 1.183340917873622 4.727846002576327 0 0 0
31 2 6.207194910260557 0.8377164881424052 10.368594549292967 0 0 0
32 2 3.7965528433666504 5.441930062398783 4.7328782251686485 0 0 0
33 2 3.075412722061858 0.5623060645471846 8.312241414614403 0 0 0
34 2 -2.205245300397517 5.971000004303323 7.068638845404211 0 0 0
35 2 3.1794578547323127 7.94796475390105 5.319159530212489 0 0 0
36 2 0.7374835289802365 3.6868523101532804 5.316214108748236 0 0 0
37 2 5.253392085350231 6.7692232581571625 1.0979643893201139 0 0 0
38 2 -1.1060106301501307 5.441054049421972 4.735804398463146 0 0 0
39 2 7.616044981155822 2.563439595673237 6.605620231209945 0 0 0
40 2 7.709007177170669 2.5094387090810235 1.097964389320097 0 0 0
41 2 2.7977769935297907 6.013960774510094 1.6892276585494392 0 0 0
42 2 -2.113453190111075 6.013960774510087 1.6892276585494508 0 0 0
43 2 5.949306027152263 3.5406899637713427 10.549104801531529 0 0 0
44 2 3.8547872675368375 2.917948979974081 9.031542572465662 0 0 0
45 2 5.157074887151111 6.839338153395779 6.60521043725205 0 0 0
46 2 1.339900785167043 7.363801251458721 3.4881581416814367 0 0 0
47 2 3.7955158769874804 3.1040167023825798 3.488158141681418 0 0 0
48 2 3.512266390461608 7.775297172048371 10.539593976999413 0 0 0
49 2 -3.571329398473836 7.3638012514587095 3.4881581416814487 0 0 0
50 2 -1.07000424454228 2.896130591692595 9.029508793852848 0 0 0
51 2 -1.1157143066533917 3.104016702382567 3.48815814168143 0 0 0
52 2 1.2082656033032309 0.7963277054873221 10.367502179515927 0 0 0
53 2 -3.525361927211894 7.164175860603422 9.02939359188873 0 0 0
54 2 1.3992956260000042 7.1687705328964055 9.045083897098031 0 0 0
55 2 5.161688085740203 1.7000525261190262 7.071889984549974 0 0 0
56 2 1.0054234017276256 3.4912187111313204 10.563650551892996 0 0 0
57 2 0.24923641330986487 6.83030698586965 6.623333089505097 0 0 0
58 2 0.3421619017093553 6.76922325815715 1.0979643893201256 0 0 0
59 2 2.7085626498585684 2.5658310151392913 6.614058144688909 0 0 0
60 2 2.7977769935297956 2.5094387090810093 1.0979643893201079 0 0 0
61 2 2.7045508834860654 5.963164807503488 7.074948798820982 0 0 0
62 2 0.34216190170936944 1.754176225433942 1.6892276585494332 0 0 0
63 2 5.253392085350233 1.7541762254339528 1.689227658549422 0 0 0
64 2 -1.7173450853016812 7.947657997976965 5.315814098147839 0 0 0
65 3 3.7382412740449413 1.5851362748134066 14.182739771030331 0 0 0
66 3 3.5070002557848694 2.2633434900738574 11.95953350689346 0 0 0
67 3 4.0888867123056025 3.820612088411236 13.615054672514074 0 0 0
68 4 3.7674974994221624 1.99202176754893 2.299426066292739 0 0 0
69 4 6.154602276513154 6.208136737466897 7.719812901706543 -1 0 0
70 4 -3.5993477760391466 6.251806316625068 2.299426066292769 0 0 0
71 4 8.615170504611124 1.9352115876741713 7.7205420146775365 -1 0 0
72 4 -1.143732684218702 1.9920217675489191 2.2994260662927504 0 0 0
73 4 4.7689188062404755 4.160251663972168 9.549815661966962 0 0 0
74 4 7.1874705345060095 0.016690940697356778 4.091112939214591 0 0 0
75 4 1.2628054447304813 2.2804709510331254 5.918554269410014 0 0 0
76 4 -0.15407323171398188 4.130653894406743 9.57026604346573 0 0 0
77 4 -0.1741308283762169 4.273069688834574 4.0929299210536625 0 0 0
78 4 -2.6151735532115294 8.401936318618446 9.57354861336793 0 -1 0
79 4 2.2810767507240106 0.01356237703204469 4.092828947628124 0 0 0
80 4 3.7078398986177747 6.541542765601353 5.919499876033092 0 0 0
81 4 6.165708910400779 2.278326876308825 5.918133670396778 0 0 0
82 4 3.7037945890340955 1.9429501988714586 7.735543788278306 0 0 0
83 4 1.3118824076017215 6.251806316625072 2.2994260662927575 0 0 0
84 4 1.2459078572756919 6.201000666310501 7.740755896596708 0 0 0
85 4 4.733691165870309 4.275345230380315 4.0931757537380715 0 0 0
86 4 2.3370709274110153 8.39992140226283 9.557204807735591 0 -1 0
87 4 -1.1932649227008958 6.5414204876616395 5.9206907345270094 0 0 0
88 5 4.591695639046899 2.4009288754680163 13.119638170452225 0 0 0
89 1 1.6812305059966444 3.2479425410679528 14.046748465485148 0 0 0
90 3 2.614388144031548 3.2565197662412437 14.152411890498003 0 0 0

Velocities

1 0 0 0
2 0 0 0
3 0 0 0
4 0 0 0
5 0 0 0
6 0 0 0
7 0 0 0
8 0 0 0
9 0 0 0
10 0 0 0
11 0 0 0
12 0 0 0
13 0 0 0
14 0 0 0
15 0 0 0
16 0 0 0
17 0 0 0
18 0 0 0
19 0 0 0
20 0 0 0
21 0 0 0
22 0 0 0
23 0 0 0
24 0 0 0
25 0 0 0
26 0 0 0
27 0 0 0
28 0 0 0
29 0 0 0
30 0 0 0
31 0 0 0
32 0 0 0
33 0 0 0
34 0 0 0
35 0 0 0
36 0 0 0
37 0 0 0
38 0 0 0
39 0 0 0
40 0 0 0
41 0 0 0
42 0 0 0
43 0 0 0
44 0 0 0
45 0 0 0
46 0 0 0
47 0 0 0
48 0 0 0
49 0 0 0
50 0 0 0
51 0 0 0
52 0 0 0
53 0 0 0
54 0 0 0
55 0 0 0
56 0 0 0
57 0 0 0
58 0 0 0
59 0 0 0
60 0 0 0
61 0 0 0
62 0 0 0
63 0 0 0
64 0 0 0
65 0 0 0
66 0 0 0
67 0 0 0
68 0 0 0
69 0 0 0
70 0 0 0
71 0 0 0
72 0 0 0
73 0 0 0
74 0 0 0
75 0 0 0
76 0 0 0
77 0 0 0
78 0 0 0
79 0 0 0
80 0 0 0
81 0 0 0
82 0 0 0
83 0 0 0
84 0 0 0
85 0 0 0
86 0 0 0
87 0 0 0
88 0 0 0
89 0 0 0
90 0 0 0
