(written by ASE)

190 atoms
4 atom types

0.0      11.653509596413199  xlo xhi
0.0        10.0922353537395  ylo yhi
0.0                      30  zlo zhi
                      0                       0                       0  xy xz yz

Atoms # atomic

     1   1     0.83555406189182002     0.45999465216127106      5.1557186117193581
     2   1      9.5672792655262668      5.5349080441625045      5.0795129156516783
     3   1      10.966974934090063       3.278314529729395      10.246925930557618
     4   1      3.7289427219652151      5.5276444745592874      5.1407567553849018
     5   1      8.7926189023148069      3.0616534816842162      12.465480944518413
     6   1      6.7039202653688559      0.4890046720078699      5.1825229316932937
     7   1      3.9405754857337638      2.6876772654804069      10.542982900891191
     8   1      2.1052300264852377      2.3122070398896857      8.1483517352280348
     9   1      5.0597742153479439      8.5293803130178638      11.173014408839782
    10   1      3.7546337913945762      4.5604180723228787                     0.5
    11   1      4.7938270571693433     0.63973159291058102      12.002162267330659
    12   1      6.6680111904978974      9.6065357491926271                     0.5
    13   1      3.0397633446353214      7.2660044808156243      9.3540560213328945
    14   1      3.2321323954407761      9.3415899448057509      11.192569288046498
    15   1     0.88588861002663377      4.0291074591622431      11.178603879118688
    16   1      5.7435439709900571      5.7649981917052751      8.1734209576629695
    17   1   -0.055173466499990914      5.6237333477258904      8.4133709756293609
    18   1      1.0696547294803598      5.8238675192085001      12.735509293140801
    19   1      8.6577913036309067     0.61161061703216035      8.4604870632678679
    20   1       8.930686038215482     0.22133273106354323      11.240244055279021
    21   1      2.7729654442986642     0.77164968109902499       8.128966248052528
    22   1      11.264912110791499      1.5651859674217046      11.390684411124136
    23   1      5.9239381878165123      2.9737505304084588      10.604418919953643
    24   1      6.6656747630207986      2.8797277837324504      3.8043095294545042
    25   1     0.83891996481419984      2.8797277837324504      3.8043095294545042
    26   1      9.5790521621241194       7.925845460602198      3.8043095294545042
    27   1 -4.3599999999999992e-14      3.3640784512465056      2.4321633756321481
    28   1      2.9263486862709991      1.7678290311370155      6.8038005973525735
    29   1       2.896540285523924      4.0669784359736392      5.1225093279732512
    30   1       8.740132197309876      6.0175168859635022                     0.5
    31   1 -4.3599999999999992e-14     0.97139920909375399                     0.5
    32   1      5.8267547982065553     0.97139920909375399                     0.5
    33   1      5.0286742501376605     0.49825731617719732      5.1741889385478164
    34   1      7.0214159674834136      4.3586721916889228      10.294888693963644
    35   1      0.9995698618138229      2.3902183302450486      12.382409456870281
    36   1       8.740132197309876      9.3788974631443622      3.8043095294545042
    37   1     0.84125639229129867      9.6065357491926271                     0.5
    38   1      7.8865077993379957      5.5086217358866696       5.156822674300563
    39   1      5.8267547982065553      3.3640784512465056      2.4321633756321481
    40   1      9.1555259002132452      8.5812364614263164      10.616732311989423
    41   1       8.740132197309876      8.4101961281162527      2.4321633756321481
    42   1      2.9133773991032776      8.4101961281162527      2.4321633756321481
    43   1      9.5813885896011737      4.5604180723228787                     0.5
    44   1      2.9133773991032776      9.3788974631443622      3.8043095294545042
    45   1      2.5973007707689582      5.6854395049290538      10.277032670534112
    46   1      7.9624948274898806      2.1617362088070213      8.4326224275695658
    47   1      11.293402686860111      8.6866139416710002       11.66726677816215
    48   1      5.1329091850201207      7.3432304714392602      8.1275803731791676
    49   1      7.1163820815271794      9.6154180827723934       12.45806278568274
    50   1      10.697236859727788      7.0461162372089587      8.2241267551769415
    51   1      2.4420190229265968      1.1281903240192162      10.872551216685748
    52   1      2.0744574342890343       7.925845460602198      3.8043095294545042
    53   1      2.9133773991032785      5.0461176768697538       1.866758950346576
    54   1      5.8267547982065997                       0       1.866758950346576
    55   1  8.9999999999999983e-16                       0       1.866758950346576
    56   1      7.8988758050185357      4.5604180723228804                     0.5
    57   1      2.0721210068119365      4.5604180723228804                     0.5
    58   1      10.812253204121857      9.6065357491926289                     0.5
    59   1      2.9133773991032776      6.0175168859635022                     0.5
    60   1      10.815075338870782      0.4533847007757702      5.1385033026892541
    61   1      2.0490943241034683      5.5142367040837517      5.2215978798203491
    62   1      8.4579407064525522      5.3347281164724993      10.758594221841829
    63   1      8.7491429396257914      4.0682155390778707      5.0975616841271947
    64   1      8.8054015418318379      5.0085151755192054       6.481084341234058
    65   1      2.9634143568862998       4.964573976980942      6.5316677730484702
    66   1      5.8629799691163873   -0.031689649991101215      6.5359356550045939
    67   1   -0.027605007118129601   -0.057523140525264367      6.5093421004675269
    68   1      5.9589534590528892       6.718300019921899        6.82306578743027
    69   1       5.749117467240132      6.8702359850923669      11.140543418726681
    70   1   -0.045475297147957151      6.4626511258738111      6.9505836092009057
    71   1       8.637385678404236      1.5184898256277795      7.0558184250287308
    72   1      10.814589631598912      2.8797277837324491      3.8043095294545042
    73   1      7.1040932823881926     0.71634672833044188      10.951452254329183
    74   1 -4.3599999999999992e-14      4.3327797862746138      3.8043095294545042
    75   1      4.9854984059152576      9.6065357491926289                     0.5
    76   1      3.7522973639175206       7.925845460602198      3.8043095294545042
    77   1      8.7401321973098778      5.0461176768697538       1.866758950346576
    78   1      3.7816534657251299      2.1246356071022428      8.2055396392113096
    79   1      4.8954916496730432      5.4095062825308053      12.220566167397687
    80   1      9.6426226694717023      1.9772877252401282      8.3067151179901089
    81   1       1.125408403715263      8.9042277984420526      10.246789061942499
    82   1     0.71653184748055909      7.1148679675393094      8.2952677623797619
    83   1      8.1060633056210385      7.8903721317547264      12.139736434534674
    84   1       6.787093981824893      7.0921437065022399      8.2321424694703751
    85   1  -0.0051958495898917932      9.0886539186775934      5.1193696521736287
    86   1      5.8267547982065553      4.3327797862746138      3.8043095294545042
    87   1      5.8647418512988718       9.128458733497089      5.1312239046975652
    88   1      7.9012122324956335       7.925845460602198      3.8043095294545042
    89   1      10.480004023602975      5.7226568786024874      11.801572950237626
    90   1      4.9878348333923119      2.8797277837324491      3.8043095294545042
    91   1      2.9810829197012496      5.0687542181225522       12.67033808722622
    92   2      2.9077613712502255      5.0236499448162544       5.505727389424159
    93   2      8.7492275717256351      5.0340592886914495      5.4543842073960924
    94   2      5.8267547982065997                       0     0.84163042435634416
    95   2   -0.082862756715448863      6.5593763282063744      7.9766973969879169
    96   2      8.7248354088719946      1.5680060289974851      8.0815719508736592
    97   2      8.7401321973098778      5.0461176768697538     0.84163042435634416
    98   2      2.9133773991032785      5.0461176768697538     0.84163042435634416
    99   2      5.8613434789261918  -0.0063912556287626507      5.5068440159913425
   100   2       8.740132197309876      8.4101961281162527      3.4593945362622507
   101   2      5.9040878191042454      6.7273403733624502      7.8488223505076569
   102   2      2.9007053712915165       1.745220139154517       7.830355605533871
   103   2      5.8267547982065553      3.3640784512465056      3.4593945362622507
   104   2 -4.3599999999999992e-14      3.3640784512465056      3.4593945362622507
   105   2  -0.0021725266303132223   -0.040247825682244595      5.4806323840608231
   106   2  8.9999999999999983e-16                       0     0.84163042435634416
   107   2      2.9133773991032776      8.4101961281162527      3.4593945362622507
   108   3      10.327457142760206       3.972767915606553      7.6858701808507313
   109   3      2.9133773991032772      3.0917580036970467      3.3010724808649616
   110   3 -4.3599999999999992e-14      8.1378756805668004      3.3010724808649616
   111   3      5.8267547982065553      8.1378756805668004      3.3010724808649616
   112   3       4.132202971906807      2.3857284981765692      1.3166483637921624
   113   3      9.9589577701134058      2.3857284981765692      1.3166483637921624
   114   3      1.2188255728034858      7.4318461750463234      1.3166483637921624
   115   3      7.0455803710100851      7.4318461750463234      1.3166483637921624
   116   3      4.1581804763790968      9.1580689168551412      7.7727883519514211
   117   3      5.7856429201432036      7.6303699244307426      10.460739794580011
   118   3      4.4737785857916457       9.090210978106569      11.778232141277487
   119   3      2.8842862373960449       7.108623587503784      7.9615628396071436
   120   3      4.6463727371258736      4.1319856500310284      7.6278820974850667
   121   3      7.5831087565673574       9.121011517126508       7.727013374754673
   122   3       1.739644646864595      9.2374762052663506      7.8045577219590214
   123   3      7.5405706686098082      7.7048823486205107       5.772445546084322
   124   3      1.6864323120355442      7.7093717509722497      5.9167020159995047
   125   3       8.711171153623761      7.5143153322621794      11.469722522231393
   126   3      6.9085129152586457      3.1095825742343992      10.798882959140453
   127   3      2.0984301341736677       4.931264213021854      9.9481630737237996
   128   3      10.838165969870877      9.1902286870207082      12.351632033032582
   129   3       4.134229673107142     0.97717983658635332      3.3010724808649616
   130   3       8.740132197309876      3.0917580036970467      3.3010724808649616
   131   3      4.6358542471577877      1.5444762522485795      12.268877307130982
   132   3      2.3730733282393688       9.757726241937041      10.898366225574097
   133   3      5.8267547982065553      5.3207783573863692      1.3166483637921624
   134   3      9.2579751345090848      5.0350161602471655      11.264837156954654
   135   3      5.9244064129585734      4.7238361392522439      5.7169647318713226
   136   3      11.435134359901914       4.121559993041858      10.073565570445657
   137   3      8.7769570789586524      7.0169025642074256      7.7569073977245058
   138   3      1.6945518262997477      2.3857284981765683      1.3166483637921624
   139   3      9.9631729534557465      7.6578787011554645      5.7264470951886333
   140   3      9.9609844713137417     0.97717983658635332      3.3010724808649616
   141   3      7.0476070722104192      6.0232975134561082      3.3010724808649616
   142   3      10.053948576313427      9.0960240207348892      7.6404088014793974
   143   3      1.1619623155358161      3.9997587685744196      7.6643402614530443
   144   3      7.0822342406648957      3.9511830327089497      7.7143533286095405
   145   3      2.9331490032065504      9.8321575280026785      5.7701802477316981
   146   3      8.7587778824240576       9.823640375704862      5.7383400660208785
   147   3      4.5880811111955024      2.6502434257169942      5.7234576575225278
   148   3      10.354967282703528      2.5688218618643539      5.7174429289277962
   149   3      4.6079292254030255      7.4318461750463234      1.3166483637921624
   150   3      1.6925251250994144     0.97717983658635321      3.3010724808649616
   151   3      10.558270910362866      1.8955694290989169      10.757915453415686
   152   3      8.3699746842987466     0.76171654537851796      11.886885230614098
   153   3      1.9712082900391621      5.9558743394971456      13.117921464359052
   154   3      7.1719379261085345      5.3153717681685899      10.014100443891339
   155   3     0.72521846121465616      1.4317602232450402       12.27768425327509
   156   3      3.1151800696043503      7.1841416451416489      10.349770322776244
   157   3      7.5213066245063471      2.3857284981765683      1.3166483637921624
   158   3      2.5905179381818288      2.0353241602812102      10.530463545421338
   159   3      10.434684023609625      7.4318461750463234      1.3166483637921624
   160   3      5.7452329343195032      1.9333107922500057      7.7143689724160716
   161   3   -0.078216820357538061      1.8780053958454115        7.73216283931857
   162   3      1.2208522740038206      6.0232975134561082      3.3010724808649616
   163   3      7.0395228767834936      2.5504846857374388      5.7457604797334145
   164   3      1.1507210354118191      2.5703082840397511      5.7158949672339228
   165   3       4.087373273253653      7.6726407010528135      5.8923488755020585
   166   3      4.6059025242026905      6.0232975134561082      3.3010724808649616
   167   3      7.1257036981468884      8.7655292455374063      12.912278067121356
   168   3      1.1156628972600768      3.7847755478476111      12.114527840498507
   169   3      9.2551715905492529        9.45350529015173      10.155370423352235
   170   3      9.1545819603189216      3.0802534050454531      13.342959923984569
   171   3   -0.090267382744126157      4.7298632526138595      5.7369331700826685
   172   3      4.6794662012877604      3.1375006804026011      10.076450934476563
   173   3      11.282576166092619      6.1996174715143324      12.160314311395567
   174   3      3.8152695531226946      4.6087181235506787      12.332454599830978
   175   3      6.3522833258969191     0.28329605769788058      10.519946257224829
   176   3      5.6947385261118137      6.0296541579913416       12.13411114872342
   177   3     0.38705303994003731       8.295073559577741      10.179760020040556
   178   3 -4.3599999999999992e-14      5.3207783573863692      1.3166483637921624
   179   3       8.740132197309876      0.2746606805166148      1.3166483637921624
   180   3      2.9133773991032776      0.2746606805166148      1.3166483637921624
   181   3      10.432657322409289      6.0232975134561082      3.3010724808649616
   182   3       7.519279923306013     0.97717983658635321      3.3010724808649616
   183   4   -0.076162970535853802      3.2824768909199418      6.7353403374683118
   184   4      5.8507784970556802      3.3213500267865621       6.733513719081313
   185   4      2.9133773991032776      1.6820392256232506      2.2987940834959804
   186   4 -4.3599999999999992e-14      6.7281569024930041      2.2987940834959804
   187   4      2.9141032771101232      8.4885497846145821      6.8267906435373353
   188   4      8.7861367682302234      8.4120327839713056      6.7484339776418514
   189   4      5.8267547982065553      6.7281569024930041      2.2987940834959804
   190   4       8.740132197309876      1.6820392256232506      2.2987940834959804
