(written by ASE)

190 atoms
4 atom types

0.0      11.653509596413199  xlo xhi
0.0        10.0922353537395  ylo yhi
0.0                      30  zlo zhi
                      0                       0                       0  xy xz yz

Atoms # atomic

     1   1     0.83892172094606521     0.48466166734958505      5.2222898559924911
     2   1      9.5870764005067137      5.5364594112464838      5.2132828569112579
     3   1      10.529894408823086      3.5370264453422759      10.269530325636035
     4   1      3.7486064056241188      5.5303724356882045       5.224553102535201
     5   1      8.3534562892628177       3.093041697826854      11.761121009871113
     6   1      6.6718919889081505     0.48068485941846556      5.2202320556102482
     7   1      3.2047709399949711      3.0128661009770394      10.320083942447102
     8   1      2.0148421365520264      2.1530892004233393      8.1159863871807083
     9   1      5.1383086958517588      8.9097049622722722      10.897304071768662
    10   1      3.7546337913945762      4.5604180723228787                     0.5
    11   1      4.8822951865787676     0.73612226901779032      12.022681301807051
    12   1      6.6680111904978974      9.6065357491926271                     0.5
    13   1      3.5722027196130255      7.7046016937914912      10.248682608923666
    14   1      2.9127835772872328      9.0338298065327844      11.441113823662514
    15   1     0.85062696415557026      3.9931167501020659      10.907855012200766
    16   1      5.7702712609165969      5.6961818232297947      8.0930045737259171
    17   1   -0.023111226626726631      5.7304729076054777      8.4030366824420568
    18   1      1.1009523291379946      6.1387950812710628      12.063321311164783
    19   1      8.7457119651758468     0.68700114149474756      8.4214025141844964
    20   1        9.04342190531146     0.72507894307918908      11.182013036673691
    21   1       2.867046185270937     0.67160417091561342      8.1232761155746669
    22   1       10.65278323651367      1.6448198325883818      11.313142713101543
    23   1      5.8900477790046928      2.6696234389847717       10.82790567234904
    24   1      6.6656747630207986      2.8797277837324504      3.8043095294545042
    25   1     0.83891996481419984      2.8797277837324504      3.8043095294545042
    26   1      9.5790521621241194       7.925845460602198      3.8043095294545042
    27   1 -4.3599999999999992e-14      3.3640784512465056      2.4321633756321481
    28   1      2.9103224613374485      1.6693626496435843       6.802921035331436
    29   1      2.9107659668227379      4.0766963286234112      5.2266385297633997
    30   1       8.740132197309876      6.0175168859635022                     0.5
    31   1 -4.3599999999999992e-14     0.97139920909375399                     0.5
    32   1      5.8267547982065553     0.97139920909375399                     0.5
    33   1      4.9858987604397962     0.48472985070406216      5.2215957824927282
    34   1      6.8670458371533849      4.4456023121251915      10.099982046271689
    35   1      1.1181327042593834      1.6327131644110775      11.927438831479316
    36   1       8.740132197309876      9.3788974631443622      3.8043095294545042
    37   1     0.84125639229129867      9.6065357491926271                     0.5
    38   1      7.9010600773171378      5.5337415000799233      5.2059924834396147
    39   1      5.8267547982065553      3.3640784512465056      2.4321633756321481
    40   1      8.9039177161045053      8.9430536918168393      10.767491938938644
    41   1       8.740132197309876      8.4101961281162527      2.4321633756321481
    42   1      2.9133773991032776      8.4101961281162527      2.4321633756321481
    43   1      9.5813885896011737      4.5604180723228787                     0.5
    44   1      2.9133773991032776      9.3788974631443622      3.8043095294545042
    45   1       2.627997579183428      5.8923234501568311      10.492071835042918
    46   1      7.9006548760537667      2.1535614968786243      8.3996326520078828
    47   1        10.8254914434822      8.6808875812663331      11.187827170149019
    48   1      4.9370746954023845      7.1718057905265313      8.0808532344631754
    49   1       7.072157536677933      9.1552031750277187      11.429433515102946
    50   1      10.810888548122133      7.2104913615859259      8.3477541079375346
    51   1      3.1928682201983203      1.1453146436653037      10.834625901195636
    52   1      2.0744574342890343       7.925845460602198      3.8043095294545042
    53   1      2.9133773991032785      5.0461176768697538       1.866758950346576
    54   1      5.8267547982065997                       0       1.866758950346576
    55   1  8.9999999999999983e-16                       0       1.866758950346576
    56   1      7.8988758050185357      4.5604180723228804                     0.5
    57   1      2.0721210068119365      4.5604180723228804                     0.5
    58   1      10.812253204121857      9.6065357491926289                     0.5
    59   1      2.9133773991032776      6.0175168859635022                     0.5
    60   1      10.816169393931958     0.49137461219069223      5.2273889925752277
    61   1      2.0645788819852586      5.5297564522949489      5.2278537662118065
    62   1      8.6940404775022966      5.4603239268691022      10.961711261197221
    63   1      8.7486426045940444      4.0774030388299982      5.2155991858445523
    64   1      8.7716372907086431       5.040328681238182      6.5739821667561413
    65   1       2.906982017598299      5.0479714265516771      6.5980554872117549
    66   1      5.8334947055879773  -0.0087540605883089911      6.5911510676726408
    67   1  -0.0030341017873277434  -0.0075791456802789961      6.5930986431698209
    68   1      5.7910416948334626      6.6654236982976833      6.7774257109463303
    69   1      6.1791386894410731      6.9072349422485759      10.630385154863385
    70   1    0.039671218896122865      6.6909690983760477      7.0084967283578772
    71   1      8.7571714970058956       1.654746132248103      7.0576674474974821
    72   1      10.814589631598912      2.8797277837324491      3.8043095294545042
    73   1      7.0242706766347238     0.87056340102613494      10.969931992550617
    74   1 -4.3599999999999992e-14      4.3327797862746138      3.8043095294545042
    75   1      4.9854984059152576      9.6065357491926289                     0.5
    76   1      3.7522973639175206       7.925845460602198      3.8043095294545042
    77   1      8.7401321973098778      5.0461176768697538       1.866758950346576
    78   1      3.7247176435171108      2.1447771461495142      8.1590204216560593
    79   1      4.8671220534164767      5.6804116632429702      11.383015978973615
    80   1      9.6154082323951204       2.137452440160506      8.3921362586322967
    81   1     0.86615624418054804      8.2968538948078763      10.779686618624265
    82   1     0.81336568017420541      7.1716425961646895      8.4052834268996968
    83   1      8.0061331656057177      7.5290158079453402      11.814490983790987
    84   1      6.6723557676023404      7.1388575713701563      8.1067094080849937
    85   1   0.0012640384965720592       9.116298627188991       5.225354947021815
    86   1      5.8267547982065553      4.3327797862746138      3.8043095294545042
    87   1      5.8279832173680139      9.1229941026576444      5.2163911730385149
    88   1      7.9012122324956335       7.925845460602198      3.8043095294545042
    89   1      10.456147624104306      5.8106282365509809      11.137928142705727
    90   1      4.9878348333923119      2.8797277837324491      3.8043095294545042
    91   1      3.7529258653707767      4.4797108070219354      11.793571563162226
    92   2      2.9089416950151601      5.0475191391718912       5.568467816619969
    93   2      8.7430251082638879      5.0516487449102172      5.5448177326168384
    94   2      5.8267547982065997                       0     0.84163042435634416
    95   2   -0.011790911698769131      6.6889349029280893      8.0308450506546105
    96   2       8.753349526941367      1.6632002787095952      8.0876181456779221
    97   2      8.7401321973098778      5.0461176768697538     0.84163042435634416
    98   2      2.9133773991032785      5.0461176768697538     0.84163042435634416
    99   2      5.8278907578286478  0.00072829338587638713      5.5614340915368574
   100   2       8.740132197309876      8.4101961281162527      3.4593945362622507
   101   2      5.7986372621884907      6.6804543841531334      7.8015895271244728
   102   2      2.8763485971078406      1.6608438628047695      7.8188201358106948
   103   2      5.8267547982065553      3.3640784512465056      3.4593945362622507
   104   2 -4.3599999999999992e-14      3.3640784512465056      3.4593945362622507
   105   2  0.00093990209726694206  -0.0053905068551222072      5.5632195223642347
   106   2  8.9999999999999983e-16                       0     0.84163042435634416
   107   2      2.9133773991032776      8.4101961281162527      3.4593945362622507
   108   3      10.233646866918493      4.0909568648551087      7.4881356475808438
   109   3      2.9133773991032772      3.0917580036970467      3.3010724808649616
   110   3 -4.3599999999999992e-14      8.1378756805668004      3.3010724808649616
   111   3      5.8267547982065553      8.1378756805668004      3.3010724808649616
   112   3       4.132202971906807      2.3857284981765692      1.3166483637921624
   113   3      9.9589577701134058      2.3857284981765692      1.3166483637921624
   114   3      1.2188255728034858      7.4318461750463234      1.3166483637921624
   115   3      7.0455803710100851      7.4318461750463234      1.3166483637921624
   116   3      4.1515958040809577       9.095642867001386      7.9029665906024205
   117   3      6.6774344439419666      7.6650046910560139      10.276098120849321
   118   3       4.797167363299943      9.0482385473742593      11.794635577810272
   119   3      2.9442448076583894      7.0260068039771566      7.8790883559714944
   120   3      4.6394666180077104      4.1861167701285042      7.7642513189135114
   121   3      7.5063567347759514      9.1243382258141086      7.8085987897328453
   122   3      1.7042201461036257      9.1503926245817766      7.8129617274573961
   123   3      7.5296433366549573      7.6761708848226347      5.8627050679577151
   124   3      1.7256222954333311       7.671992050733933      5.9025946262756781
   125   3      8.9726420401379432      7.4163403482286432      11.879435063385461
   126   3      6.8194367893260317      2.8812012275503767      10.604273780613683
   127   3      2.5618493387709678      5.1591485300123594      9.8495151665688105
   128   3      10.984681364655001       9.076857163303929      12.036977550928531
   129   3       4.134229673107142     0.97717983658635332      3.3010724808649616
   130   3       8.740132197309876      3.0917580036970467      3.3010724808649616
   131   3      4.6429145247265637      1.6835867222857388      12.098986714226607
   132   3      2.7906694637122542      9.3102479277592067      10.527357384164823
   133   3      5.8267547982065553      5.3207783573863692      1.3166483637921624
   134   3      9.2779534260262402      5.0643824489101981      11.595332359814797
   135   3      5.9163679161782818      4.7538110606260346      5.8554146764154869
   136   3      10.944864650693843      4.3654236877223438      9.9750852707587807
   137   3      8.7432558901853827      7.0261839267594812      7.8942548493006912
   138   3      1.6945518262997477      2.3857284981765683      1.3166483637921624
   139   3      9.9390422508883276      7.6608665262580216      5.8644104508588981
   140   3      9.9609844713137417     0.97717983658635332      3.3010724808649616
   141   3      7.0476070722104192      6.0232975134561082      3.3010724808649616
   142   3      10.025175797653747      9.1101120097973212      7.7493910859650184
   143   3      1.0906201103380386      4.0500690847464496      7.8087222937183309
   144   3      7.0600893266543681      4.0751465115619858      7.9513288268461189
   145   3      2.9707784128498615      9.7935894646154562      5.8812081478378344
   146   3      8.7259747534134711      9.8116262549064004      5.8668482638362214
   147   3      4.6476178166490323      2.6730799295537095      5.9063265334970758
   148   3      10.526768101883231      2.5157200389674181      5.7090654592526082
   149   3      4.6079292254030255      7.4318461750463234      1.3166483637921624
   150   3      1.6925251250994144     0.97717983658635321      3.3010724808649616
   151   3      10.740966463406307      1.9373553396454188      10.402955718251118
   152   3      8.7629265793563498     0.65863518143475908      12.091858980034916
   153   3      1.9174892030027579      5.9653891582636271      12.568069128120706
   154   3      6.9085712946675759      5.3319054765311629       10.47956038206849
   155   3     0.85550240563787905      0.9400365739763541      12.540254519579495
   156   3      3.0517975969695801       7.245761717334064      10.926291389435036
   157   3      7.5213066245063471      2.3857284981765683      1.3166483637921624
   158   3      2.3925621371575745      1.4352270210402329      10.375255658094298
   159   3      10.434684023609625      7.4318461750463234      1.3166483637921624
   160   3      5.8163289804713578      1.9921411515485963      7.9043102043279454
   161   3   -0.054368898746682694      2.0128321342274611      7.8000632122936668
   162   3      1.2208522740038206      6.0232975134561082      3.3010724808649616
   163   3      7.0963749625137167      2.6753804861268318      5.9519602559722493
   164   3      1.2540669412457464      2.6353818577011552      5.8106152334489618
   165   3      4.1510269417077872      7.6979342872173886       5.875344871166317
   166   3      4.6059025242026905      6.0232975134561082      3.3010724808649616
   167   3      6.9418072491623457      8.9052654919413783      12.337307945677937
   168   3      1.1782533664105741      3.3517538863856942      11.545282822972037
   169   3       9.150678053090493      9.4065112038601697      9.9609884170074796
   170   3      9.1344301904092475      2.9576693118862321      12.299443566862193
   171   3      0.1225024355806346      4.7477786363457062      5.7421167501749935
   172   3      4.0482140749484152      3.2460327540568272      9.8865956213057462
   173   3      11.270477946384487      6.1027086427678112      11.662809487707362
   174   3        4.02179112564479      3.8239241479680626      12.423410744868459
   175   3      6.4445677638465426     0.52432771758357866      10.287734002096432
   176   3      5.1338883416241492      6.4620777386682606      11.853366274042603
   177   3      0.4926288274623139      8.0106533329075447      9.9612942450482826
   178   3 -4.3599999999999992e-14      5.3207783573863692      1.3166483637921624
   179   3       8.740132197309876      0.2746606805166148      1.3166483637921624
   180   3      2.9133773991032776      0.2746606805166148      1.3166483637921624
   181   3      10.432657322409289      6.0232975134561082      3.3010724808649616
   182   3       7.519279923306013     0.97717983658635321      3.3010724808649616
   183   4   -0.048017764681986853      3.3672758485158929      6.7572388709201769
   184   4      5.8427403223339933      3.3779094592664154      6.8994014964899684
   185   4      2.9133773991032776      1.6820392256232506      2.2987940834959804
   186   4 -4.3599999999999992e-14      6.7281569024930041      2.2987940834959804
   187   4      2.9162577559666443      8.4126273999604173      6.8830940298065739
   188   4       8.748900586814603      8.4121185133854066      6.8753720143633492
   189   4      5.8267547982065553      6.7281569024930041      2.2987940834959804
   190   4       8.740132197309876      1.6820392256232506      2.2987940834959804
