(written by ASE)

190 atoms
4 atom types

0.0      11.653509596413199  xlo xhi
0.0        10.0922353537395  ylo yhi
0.0                      30  zlo zhi
                      0                       0                       0  xy xz yz

Atoms # atomic

     1   1     0.83605195691040624      0.4842229536756264      5.2188408298971565
     2   1      9.5853834626710981      5.5452797383787473      5.1986081282465655
     3   1      10.616095121481603      3.5812925824456778      10.261566742418792
     4   1      3.7489476300589262      5.5334152833994779      5.2244424707109305
     5   1       8.379844009329517      3.1113446342236357      11.854305653964211
     6   1      6.6741589155471539     0.48187467758420016       5.221916896042063
     7   1      3.2967403652769063      3.0432175996506889      10.318400357195449
     8   1      1.9993899283533838      2.1351791833553433      8.0734997562021551
     9   1      5.1846811681084617      8.8882601538527855      11.003904444958305
    10   1      3.7546337913945762      4.5604180723228787                     0.5
    11   1      4.8637502944978923     0.69087954418457109      12.076950285410243
    12   1      6.6680111904978974      9.6065357491926271                     0.5
    13   1       3.414721225557575      7.7010665032668806      10.194350265174883
    14   1      2.8989194604169737      9.0677829571934065      11.362286115465615
    15   1     0.80778349932196336      3.9918888891414439      10.922352746327469
    16   1      5.7558272320737922      5.6952617558886045      8.0697807653423919
    17   1   -0.032030772354627916      5.7094198309919744      8.3888458832789166
    18   1      1.1122461255554288      6.1298385196588656      12.245667507860556
    19   1      8.7485898560896427     0.68269777139733878      8.4242174927945204
    20   1      9.0989561197249031     0.64156827467258626      11.214441419488852
    21   1      2.8528001769920004     0.68715576343879858      8.0958724454149298
    22   1      10.690282395955442      1.6250442463259203      11.347609649377253
    23   1      5.8954704591602525       2.650495726874103      10.882099187848148
    24   1      6.6656747630207986      2.8797277837324504      3.8043095294545042
    25   1     0.83891996481419984      2.8797277837324504      3.8043095294545042
    26   1      9.5790521621241194       7.925845460602198      3.8043095294545042
    27   1 -4.3599999999999992e-14      3.3640784512465056      2.4321633756321481
    28   1      2.9057360528376002      1.6669460001248511      6.7720675383672244
    29   1      2.9073060034734937      4.0760803883019516      5.2290504167974312
    30   1       8.740132197309876      6.0175168859635022                     0.5
    31   1 -4.3599999999999992e-14     0.97139920909375399                     0.5
    32   1      5.8267547982065553     0.97139920909375399                     0.5
    33   1      4.9906717142843791     0.48503195657986509      5.2214104427786223
    34   1      6.8707004142237391      4.3829212117744039      10.034239014078121
    35   1      1.1292630947270297      1.6438414551260532      11.986548976954701
    36   1       8.740132197309876      9.3788974631443622      3.8043095294545042
    37   1     0.84125639229129867      9.6065357491926271                     0.5
    38   1      7.9014813162568167      5.5343414350079563      5.1982010801446634
    39   1      5.8267547982065553      3.3640784512465056      2.4321633756321481
    40   1      8.9452116798193302      8.8353871124951375      10.717220662055961
    41   1       8.740132197309876      8.4101961281162527      2.4321633756321481
    42   1      2.9133773991032776      8.4101961281162527      2.4321633756321481
    43   1      9.5813885896011737      4.5604180723228787                     0.5
    44   1      2.9133773991032776      9.3788974631443622      3.8043095294545042
    45   1      2.5708849732381069      5.8773366138175387      10.386259059059087
    46   1      7.9057622102895992       2.151675425920438      8.3964329607886832
    47   1      10.786010950564801       8.713473826462522      11.245505070837869
    48   1      4.9287669560381895      7.1722611042388227      8.0482439591925665
    49   1      7.0057048991158508      9.1519209506974821      11.572718990571831
    50   1      10.810591332809919      7.1911467305655021      8.3212726123188716
    51   1      3.0597422996553996      1.1527905318655363      10.884427823211373
    52   1      2.0744574342890343       7.925845460602198      3.8043095294545042
    53   1      2.9133773991032785      5.0461176768697538       1.866758950346576
    54   1      5.8267547982065997                       0       1.866758950346576
    55   1  8.9999999999999983e-16                       0       1.866758950346576
    56   1      7.8988758050185357      4.5604180723228804                     0.5
    57   1      2.0721210068119365      4.5604180723228804                     0.5
    58   1      10.812253204121857      9.6065357491926289                     0.5
    59   1      2.9133773991032776      6.0175168859635022                     0.5
    60   1      10.821613863044769     0.48732878897755588      5.2278973981015513
    61   1      2.0650915546630073      5.5261647647367136       5.228148247335227
    62   1      8.5286632082779956      5.4919266743514656      10.986087982558258
    63   1      8.7428226000746427      4.0799135168347904      5.2051692734192629
    64   1      8.7736280464611198      5.0400601584356224      6.5658247918265609
    65   1      2.9122637338239805      5.0450366246331875      6.5992499225896992
    66   1      5.8374631560827837   -0.010591935704842237      6.5914850225816251
    67   1  -0.0043388655008021288   -0.015618830802258185       6.593768101305697
    68   1      5.7973319241851193      6.6680315669792245      6.7758734431198366
    69   1      6.1577295038885014      6.9800831390131792      10.664294446536596
    70   1    0.031539156923758083      6.6638202031255958      6.9803081304398242
    71   1      8.7473550290600901      1.6382423044482755      7.0528864736368302
    72   1      10.814589631598912      2.8797277837324491      3.8043095294545042
    73   1      7.0168245487398684     0.84346028250130034      10.890586278669529
    74   1 -4.3599999999999992e-14      4.3327797862746138      3.8043095294545042
    75   1      4.9854984059152576      9.6065357491926289                     0.5
    76   1      3.7522973639175206       7.925845460602198      3.8043095294545042
    77   1      8.7401321973098778      5.0461176768697538       1.866758950346576
    78   1      3.7299959338973436      2.1329284845122189      8.1401236903898759
    79   1      4.8593695301207021       5.652322712269477      11.546265075877489
    80   1       9.619573632327004      2.1199089463078264      8.3899624908968562
    81   1     0.95163559065261527      8.3465765900649114      10.743536305163982
    82   1     0.81232776091136827      7.1462919760806907      8.3753925095949278
    83   1       8.060973920278272      7.6043120006830094      11.909298778731543
    84   1      6.6812957069256669      7.1420686147960639      8.0904933917314548
    85   1  -0.0017023544049699433       9.110273514090613      5.2236632516951467
    86   1      5.8267547982065553      4.3327797862746138      3.8043095294545042
    87   1      5.8283115742837452      9.1223703347042235      5.2128115627231653
    88   1      7.9012122324956335       7.925845460602198      3.8043095294545042
    89   1      10.566794454134495      5.7282099930428529       11.35198204818461
    90   1      4.9878348333923119      2.8797277837324491      3.8043095294545042
    91   1      3.6005191348769414      4.5110829082391648      11.828554131544202
    92   2      2.9104547829628848      5.0475303199229486      5.5697560106442134
    93   2      8.7467869403179463      5.0537278517929423      5.5368177342915335
    94   2      5.8267547982065997                       0     0.84163042435634416
    95   2   -0.014975418512454054      6.6667546956006838      8.0077193433629148
    96   2      8.7525153645724387      1.6554617744223457      8.0836530206148396
    97   2      8.7401321973098778      5.0461176768697538     0.84163042435634416
    98   2      2.9133773991032785      5.0461176768697538     0.84163042435634416
    99   2      5.8313139975720745  -0.0013072528991632923      5.5619488216054549
   100   2       8.740132197309876      8.4101961281162527      3.4593945362622507
   101   2       5.799380191641843      6.6847681851308121      7.7993707405033934
   102   2      2.8742240179382277      1.6677761972091418      7.7939574383718773
   103   2      5.8267547982065553      3.3640784512465056      3.4593945362622507
   104   2 -4.3599999999999992e-14      3.3640784512465056      3.4593945362622507
   105   2   0.0037014774068260454   -0.011446868024494794      5.5638189565363518
   106   2  8.9999999999999983e-16                       0     0.84163042435634416
   107   2      2.9133773991032776      8.4101961281162527      3.4593945362622507
   108   3      10.274744109100094      4.0561031682992166      7.5292720523430381
   109   3      2.9133773991032772      3.0917580036970467      3.3010724808649616
   110   3 -4.3599999999999992e-14      8.1378756805668004      3.3010724808649616
   111   3      5.8267547982065553      8.1378756805668004      3.3010724808649616
   112   3       4.132202971906807      2.3857284981765692      1.3166483637921624
   113   3      9.9589577701134058      2.3857284981765692      1.3166483637921624
   114   3      1.2188255728034858      7.4318461750463234      1.3166483637921624
   115   3      7.0455803710100851      7.4318461750463234      1.3166483637921624
   116   3      4.1401705618744762      9.0956529986756784      7.8746814602155739
   117   3      6.6621083778359491      7.7415398927952914      10.217032001929221
   118   3      4.6589567849191047      9.0241439677090227       11.75843961801182
   119   3      2.9519015033822327      7.0282513284713151      7.8661235776497413
   120   3      4.6391597364191632      4.2064668316764697      7.7133107793065703
   121   3      7.5273098761393005      9.1234643999938356      7.7832325012577064
   122   3      1.7236314191176845      9.1604606863036828      7.7934822684496403
   123   3      7.5368417442540547      7.6746120963098683      5.8417273306284843
   124   3      1.7151070009197402      7.6707393057016997       5.876108612589702
   125   3      8.9752572414094303      7.4397725995702553      11.805488308137503
   126   3      6.7767650148543552      2.9401405491123116        10.5810527571559
   127   3      2.4248825398828666      5.0609268429673637      9.8802601776521239
   128   3      11.076877099927733      9.1207512966328945      12.047831817762914
   129   3       4.134229673107142     0.97717983658635332      3.3010724808649616
   130   3       8.740132197309876      3.0917580036970467      3.3010724808649616
   131   3      4.6896585863798146      1.5983806400815255      12.053659092485564
   132   3      2.7168804650747713      9.4780392640342228      10.527761500204942
   133   3      5.8267547982065553      5.3207783573863692      1.3166483637921624
   134   3      9.1852106393420989      5.0324621429758736      11.492762743204517
   135   3      5.9552560242658901      4.7554137159883556      5.8227138833971601
   136   3      10.999620919645796      4.4027665659825121      9.9298220266542057
   137   3      8.7390351485614683       7.046435266501951      7.8755193944561137
   138   3      1.6945518262997477      2.3857284981765683      1.3166483637921624
   139   3       9.941079238356382       7.645082236440901      5.8212240861153131
   140   3      9.9609844713137417     0.97717983658635332      3.3010724808649616
   141   3      7.0476070722104192      6.0232975134561082      3.3010724808649616
   142   3      10.031814620655425      9.1159982636951256      7.7022493526491118
   143   3      1.0497193028086296      4.0683179068216706      7.7691930159159783
   144   3      7.0519170078366553      4.0684760729745113      7.9208693642868111
   145   3       2.978789066481708      9.8073422958560297      5.8374206370312409
   146   3      8.7289213499316993      9.8181909924002255      5.8169933617651708
   147   3      4.6548936151090761      2.6614299404544495      5.8708882909643059
   148   3       10.53365750766576      2.5242338867949141      5.6591437691120543
   149   3      4.6079292254030255      7.4318461750463234      1.3166483637921624
   150   3      1.6925251250994144     0.97717983658635321      3.3010724808649616
   151   3      10.664867809987602      1.7988857979865365      10.413358026066827
   152   3      8.7027859523287141     0.60732770680688186      12.088572567022187
   153   3       1.958610420983131      5.8918145461162359      12.641924089169919
   154   3      7.0066056592109351      5.3003367483654369      10.357768401653859
   155   3     0.83624844961921085     0.94155998508075822       12.58412849682674
   156   3      3.0675104030014841      7.2305584547776478      10.938094818471223
   157   3      7.5213066245063471      2.3857284981765683      1.3166483637921624
   158   3      2.3974312253337167      1.6656149331341348      10.479990990191805
   159   3      10.434684023609625      7.4318461750463234      1.3166483637921624
   160   3      5.7984792747528342       2.014696604960966      7.8839377825051713
   161   3    -0.10978121296908715      2.0214852747512695      7.7630406965532908
   162   3      1.2208522740038206      6.0232975134561082      3.3010724808649616
   163   3      7.1252440483132391      2.6570696215846512       5.943189322841115
   164   3       1.254905697611479      2.6334934857917087      5.8033954728805153
   165   3      4.1527203536111426      7.6983629845980461       5.866688191078592
   166   3      4.6059025242026905      6.0232975134561082      3.3010724808649616
   167   3      7.0111255234012804      8.9286407621842745      12.503201361397934
   168   3      1.2407955180006303      3.3917400013905095        11.5187587016959
   169   3      9.1787456340679903      9.4533686895697304      10.046036695706801
   170   3      9.1572272432543205      2.9410582038285336      12.396571093935975
   171   3     0.10000262294383862      4.7311902417872878      5.6925480572871603
   172   3      4.1820479294482675      3.1776969666576274      9.9763154920788715
   173   3      11.377968948597076      6.2472432762612922       11.60041918572575
   174   3      4.0347582987268282      3.9270596003059119      12.473389491614082
   175   3      6.4215667305208282     0.43124512162156509      10.262496049467694
   176   3      5.2659439441719638       6.425233706796095      11.905039349507483
   177   3     0.41338571925655038      8.0376988113831729      10.056853671823797
   178   3 -4.3599999999999992e-14      5.3207783573863692      1.3166483637921624
   179   3       8.740132197309876      0.2746606805166148      1.3166483637921624
   180   3      2.9133773991032776      0.2746606805166148      1.3166483637921624
   181   3      10.432657322409289      6.0232975134561082      3.3010724808649616
   182   3       7.519279923306013     0.97717983658635321      3.3010724808649616
   183   4   -0.049107064955045403      3.3553293761845184      6.7182842060671444
   184   4      5.8664111202079443      3.3812550920744844      6.8810378292733887
   185   4      2.9133773991032776      1.6820392256232506      2.2987940834959804
   186   4 -4.3599999999999992e-14      6.7281569024930041      2.2987940834959804
   187   4      2.9307924120285729      8.4164757306851836      6.8626939071546644
   188   4      8.7525778856934515      8.4092564107303964       6.837926161180051
   189   4      5.8267547982065553      6.7281569024930041      2.2987940834959804
   190   4       8.740132197309876      1.6820392256232506      2.2987940834959804
