(written by ASE)

190 atoms
4 atom types

0.0      11.653509596413199  xlo xhi
0.0        10.0922353537395  ylo yhi
0.0                      30  zlo zhi
                      0                       0                       0  xy xz yz

Atoms # atomic

     1   1     0.83774357521309206     0.45792782596787113      5.1795674335486535
     2   1      9.5738771042640227      5.5488718402306034      5.1034317221557499
     3   1      10.796619334118278       3.410878897435766      10.149732396170396
     4   1      3.7357914844175886      5.5298828795238881      5.1694255364754511
     5   1       8.671113124514271      3.0732826965005731      12.301082823418188
     6   1      6.7017813743152033     0.48806269434865085      5.2030532917788985
     7   1      3.8515521822223895      2.8343706400572888       10.44668099247319
     8   1      2.0522073286238944      2.2284086046942795      8.1216851399919356
     9   1      5.1947998270423881      8.6237107507664543      11.149845318154888
    10   1      3.7546337913945762      4.5604180723228787                     0.5
    11   1      4.7895626916733791     0.60050936821865186      12.033743925691969
    12   1      6.6680111904978974      9.6065357491926271                     0.5
    13   1      2.9997395642497331      7.5372693951169607      9.5978468960273489
    14   1      3.1803236696358677       9.158538995705463      11.262603002390387
    15   1      0.8760664023763417      3.9972328700937085        11.1053968250163
    16   1      5.7504834496948245      5.7508938955221058      8.1444676530574291
    17   1   -0.053972413050438602      5.6425187013605642      8.3659300064580684
    18   1      1.1173001338898079      5.8783361570497883      12.660774633402921
    19   1      8.6992685196409081     0.62143391853463714      8.4472069921668211
    20   1      8.9071239691650348     0.21377678244627252      11.264855287723895
    21   1      2.8053708254182581     0.73309610486544197      8.1165088377938055
    22   1      11.068957043444078      1.5209977021162906      11.399564884957838
    23   1      5.8388592633621768       2.837340958339253      10.683390059679203
    24   1      6.6656747630207986      2.8797277837324504      3.8043095294545042
    25   1     0.83891996481419984      2.8797277837324504      3.8043095294545042
    26   1      9.5790521621241194       7.925845460602198      3.8043095294545042
    27   1 -4.3599999999999992e-14      3.3640784512465056      2.4321633756321481
    28   1      2.9393884927367377      1.7243998854713256      6.7988923968466084
    29   1      2.9035546749266206      4.0699087330857715       5.170268804046307
    30   1       8.740132197309876      6.0175168859635022                     0.5
    31   1 -4.3599999999999992e-14     0.97139920909375399                     0.5
    32   1      5.8267547982065553     0.97139920909375399                     0.5
    33   1      5.0243349520979281     0.49743657350978243      5.1989971330573725
    34   1      6.9231379992522326      4.3377797479517346       10.15718297261963
    35   1       1.113609516294886      2.2728732174818109      12.305646693399202
    36   1       8.740132197309876      9.3788974631443622      3.8043095294545042
    37   1     0.84125639229129867      9.6065357491926271                     0.5
    38   1      7.8965563410727704      5.5263194264033144      5.1643152365272371
    39   1      5.8267547982065553      3.3640784512465056      2.4321633756321481
    40   1      9.0784439005911715      8.5473404739868002      10.512254651105925
    41   1       8.740132197309876      8.4101961281162527      2.4321633756321481
    42   1      2.9133773991032776      8.4101961281162527      2.4321633756321481
    43   1      9.5813885896011737      4.5604180723228787                     0.5
    44   1      2.9133773991032776      9.3788974631443622      3.8043095294545042
    45   1      2.5388427672621443      5.7164487311403356      10.263074894397683
    46   1      7.9412654262748212      2.1426586555405676      8.4209483676507642
    47   1      11.104076621614574      8.6630886077161957      11.498266839652089
    48   1      5.0463914262632361      7.2832584422714373      8.0951297136679088
    49   1      7.0368626501538003      9.4280757006081419      12.286885924179485
    50   1      10.737162251969369      7.0962493957979653      8.2370982374934716
    51   1      2.6347421341203656      1.1477365304710689      10.841684672815239
    52   1      2.0744574342890343       7.925845460602198      3.8043095294545042
    53   1      2.9133773991032785      5.0461176768697538       1.866758950346576
    54   1      5.8267547982065997                       0       1.866758950346576
    55   1  8.9999999999999983e-16                       0       1.866758950346576
    56   1      7.8988758050185357      4.5604180723228804                     0.5
    57   1      2.0721210068119365      4.5604180723228804                     0.5
    58   1      10.812253204121857      9.6065357491926289                     0.5
    59   1      2.9133773991032776      6.0175168859635022                     0.5
    60   1      10.817939843403188      0.4557362933547135      5.1759399112119517
    61   1      2.0560701699521848      5.5171302146452952      5.2216216181765756
    62   1      8.4334325568426785      5.3774082159172929      10.832902008216525
    63   1       8.744632867541215      4.0817862405131455      5.1196816682703865
    64   1      8.7951413129925005      5.0318314208243198      6.5023722195669924
    65   1      2.9504785314333901      5.0050654341773999      6.5601195378904418
    66   1      5.8612529200442935   -0.028026821064804072      6.5615794799166363
    67   1   -0.016828186477097398   -0.055155178245611482       6.542348727183648
    68   1      5.9191283747360472      6.7163398250821764      6.7934248612853603
    69   1      5.8688985789140951       6.987929508619537      10.911320872803254
    70   1   -0.024651315169809115      6.5309519940959522      6.9360026734974261
    71   1      8.6681124987819711      1.5401095247757053      7.0540223160269688
    72   1      10.814589631598912      2.8797277837324491      3.8043095294545042
    73   1      7.1626200083941587     0.76867001326250306        10.8734016883372
    74   1 -4.3599999999999992e-14      4.3327797862746138      3.8043095294545042
    75   1      4.9854984059152576      9.6065357491926289                     0.5
    76   1      3.7522973639175206       7.925845460602198      3.8043095294545042
    77   1      8.7401321973098778      5.0461176768697538       1.866758950346576
    78   1      3.7440464326435823      2.1276178309417295       8.191201860275914
    79   1      4.9219655983494119      5.5802779320503832      12.160977421748921
    80   1       9.633956730905286      2.0208648352476462      8.3167049418890109
    81   1      1.0112630815560033      8.8096534683369967      10.316793413110915
    82   1     0.75835269226584567      7.1115625063941152      8.2949458004806971
    83   1      8.2059920327328122      7.9811134252235574       12.20581950899658
    84   1      6.7230668778939622      7.1282561358247438       8.193929275508129
    85   1   -0.004824081084140599      9.0873121256886495      5.1609000667583347
    86   1      5.8267547982065553      4.3327797862746138      3.8043095294545042
    87   1      5.8579804533397217        9.12886467577807      5.1641314430514811
    88   1      7.9012122324956335       7.925845460602198      3.8043095294545042
    89   1      10.492649611176565      5.7720591330001207       11.69613189691532
    90   1      4.9878348333923119      2.8797277837324491      3.8043095294545042
    91   1       3.031506780186604      4.7528247159662698      12.546406471989783
    92   2      2.9094568361567315      5.0339183995511405      5.5320492452933925
    93   2      8.7528227878755978      5.0490133204600474      5.4739832463415272
    94   2      5.8267547982065997                       0     0.84163042435634416
    95   2   -0.060333732497678247       6.592977227617804      7.9633911539680611
    96   2      8.7337282283084825      1.5831585671750059      8.0809104119679329
    97   2      8.7401321973098778      5.0461176768697538     0.84163042435634416
    98   2      2.9133773991032785      5.0461176768697538     0.84163042435634416
    99   2      5.8589119980781312  -0.0034138228294973705       5.532595976628687
   100   2       8.740132197309876      8.4101961281162527      3.4593945362622507
   101   2      5.8579316810202737      6.7197661017086707      7.8193203233333595
   102   2      2.8842777204930146      1.7095858735023599      7.8194835814901085
   103   2      5.8267547982065553      3.3640784512465056      3.4593945362622507
   104   2 -4.3599999999999992e-14      3.3640784512465056      3.4593945362622507
   105   2   0.0019052886735238849   -0.038328485567293596      5.5135323777531493
   106   2  8.9999999999999983e-16                       0     0.84163042435634416
   107   2      2.9133773991032776      8.4101961281162527      3.4593945362622507
   108   3      10.297950479575704      3.9895484063937139      7.6364561712628118
   109   3      2.9133773991032772      3.0917580036970467      3.3010724808649616
   110   3 -4.3599999999999992e-14      8.1378756805668004      3.3010724808649616
   111   3      5.8267547982065553      8.1378756805668004      3.3010724808649616
   112   3       4.132202971906807      2.3857284981765692      1.3166483637921624
   113   3      9.9589577701134058      2.3857284981765692      1.3166483637921624
   114   3      1.2188255728034858      7.4318461750463234      1.3166483637921624
   115   3      7.0455803710100851      7.4318461750463234      1.3166483637921624
   116   3      4.1623690159351554      9.1464813309894133      7.7690855236224206
   117   3      5.9274919390333993      7.8283081106772308      10.385337212340179
   118   3      4.5070930623231344      9.0753422496087968       11.76005626811985
   119   3      2.9156162207772165      7.1034813092761215      7.9078413625323476
   120   3       4.626878261802954      4.1613699815552732      7.5993647486487541
   121   3      7.5731077877167392      9.1409943441809745      7.6991724867209328
   122   3      1.7249683461396519      9.2262197661510701      7.7629345475441083
   123   3      7.5396865083069704      7.6994069554639424      5.7511078451433102
   124   3      1.7073827442845066      7.6841746176772601      5.8856427771670869
   125   3       8.772990854471475      7.5296083317798574      11.567114511540453
   126   3      6.8266900602441298      3.0035242228577785      10.822101571964222
   127   3      2.1102822546239008      4.9248586638379495       9.942809755899388
   128   3      10.964825492778346        9.20918635517212      12.261078176571539
   129   3       4.134229673107142     0.97717983658635332      3.3010724808649616
   130   3       8.740132197309876      3.0917580036970467      3.3010724808649616
   131   3       4.677505689733727      1.5337961710006911      12.186316570435373
   132   3       2.452825177524951      9.6779690976910278      10.827409500568582
   133   3      5.8267547982065553      5.3207783573863692      1.3166483637921624
   134   3      9.1834258224447272       5.007946577809288       11.32914203015469
   135   3      5.9553045830183748      4.7241599855116476      5.7156167823944175
   136   3      11.340095184503316      4.1917704160446485      10.002179093470037
   137   3      8.7662309779155283       7.039730160895127      7.7493107041669465
   138   3      1.6945518262997477      2.3857284981765683      1.3166483637921624
   139   3      9.9618836072390096      7.6583965711104094      5.7177461926414308
   140   3      9.9609844713137417     0.97717983658635332      3.3010724808649616
   141   3      7.0476070722104192      6.0232975134561082      3.3010724808649616
   142   3      10.053096912625215      9.1136372822170877      7.6121995323108482
   143   3        1.13639746613814      4.0009135064153902      7.6536033338713088
   144   3       7.074250375214171      3.9819249155609895      7.7391097483922424
   145   3      2.9467878246339856      9.8143421151676229      5.7635491429000201
   146   3      8.7651081181970127      9.8214830939999995      5.7154392538823036
   147   3      4.6365384378604535      2.6371373071210003      5.7251750207102576
   148   3      10.385054911291407      2.5724234589211012      5.7199787811541309
   149   3      4.6079292254030255      7.4318461750463234      1.3166483637921624
   150   3      1.6925251250994144     0.97717983658635321      3.3010724808649616
   151   3      10.550575257988713      1.9008735690864942      10.682365351476902
   152   3       8.344353601243407     0.74380686398071139      11.880220844838263
   153   3       2.017973475377584      5.8545009225916189      13.044341222378799
   154   3      7.1149992489584015      5.2886524640374581      9.9631573651479002
   155   3     0.88772604663788834      1.3285295704468116      12.433604198602691
   156   3      3.1460595562883862      7.1653969936820854      10.477585343234518
   157   3      7.5213066245063471      2.3857284981765683      1.3166483637921624
   158   3       2.584683435007852      2.0641453470875883      10.531809041542237
   159   3      10.434684023609625      7.4318461750463234      1.3166483637921624
   160   3      5.7439696274608787       1.957052557857921      7.7516678985613492
   161   3   -0.056279625556852717       1.914420896214331      7.7168880771322241
   162   3      1.2208522740038206      6.0232975134561082      3.3010724808649616
   163   3      7.0743865781527804      2.5662424923857232      5.7977191840803206
   164   3      1.1300266361582836      2.6208350377017289      5.6947695321849183
   165   3      4.1149763006085074      7.6690804471827878      5.8458463962532843
   166   3      4.6059025242026905      6.0232975134561082      3.3010724808649616
   167   3      7.0193068761812807      8.6770300427480525      12.869360301780057
   168   3      1.0714916768342007       3.680526796769636      12.009204572465885
   169   3      9.3877922039282797      9.4072065294770528      10.159881715656876
   170   3      9.2110265848237969      3.1167302711314617       13.07254148531076
   171   3   -0.063666259075303752      4.7394472530577811      5.7339465743368185
   172   3      4.6534386856639802      3.1774815393771143      10.020257375044729
   173   3      11.314199597542306      6.1936120779324035      12.023762137849809
   174   3      3.8777231154446334      4.4220514530324744      12.251876201716474
   175   3      6.4481025637679226     0.23812993797464971      10.487730641910877
   176   3      5.7261577397316996      6.1326761206548923       12.12535458656542
   177   3     0.32157891230507935      8.1993285063038197       10.09170794607731
   178   3 -4.3599999999999992e-14      5.3207783573863692      1.3166483637921624
   179   3       8.740132197309876      0.2746606805166148      1.3166483637921624
   180   3      2.9133773991032776      0.2746606805166148      1.3166483637921624
   181   3      10.432657322409289      6.0232975134561082      3.3010724808649616
   182   3       7.519279923306013     0.97717983658635321      3.3010724808649616
   183   4   -0.073430731052604351      3.2993595931118294      6.7138704871381671
   184   4       5.865177334646166      3.3374871436058329      6.7526602028436216
   185   4      2.9133773991032776      1.6820392256232506      2.2987940834959804
   186   4 -4.3599999999999992e-14      6.7281569024930041      2.2987940834959804
   187   4      2.9295081656748412      8.4613672623249254      6.8123011786539482
   188   4      8.7813659101234887      8.4152638980087584       6.727456613329446
   189   4      5.8267547982065553      6.7281569024930041      2.2987940834959804
   190   4       8.740132197309876      1.6820392256232506      2.2987940834959804
