(written by ASE)

190 atoms
4 atom types

0.0      11.653509596413199  xlo xhi
0.0        10.0922353537395  ylo yhi
0.0                      30  zlo zhi
                      0                       0                       0  xy xz yz

Atoms # atomic

     1   1     0.83715648935787812     0.48423143972412835      5.2204563707627267
     2   1      9.5863248231077858      5.5404817836384694      5.2074709888665458
     3   1      10.574801449314903      3.5775532792664682      10.265832880147446
     4   1      3.7484363818126623      5.5310224450441874      5.2250706023215301
     5   1      8.3766792079583308      3.1044753849045064       11.80620694262246
     6   1      6.6725731887039883     0.48110320371514487      5.2213832107331246
     7   1      3.2412112071285692       3.029378840170414      10.324359127247908
     8   1      1.9898791098551047      2.1513516347169204      8.0843576164014088
     9   1      5.1722420281928994      8.8972584142244298      10.924627223921437
    10   1      3.7546337913945762      4.5604180723228787                     0.5
    11   1       4.862344489657751     0.73814049561525408      12.049055315718896
    12   1      6.6680111904978974      9.6065357491926271                     0.5
    13   1      3.5046334329170605      7.7082482504321046      10.204598504063945
    14   1      2.8972647852298414      9.0497511587676041      11.409248645205984
    15   1     0.82710275415195011      3.9904506349599806      10.910229211377809
    16   1      5.7638708590847774      5.6927342797485139      8.0751946841932476
    17   1   -0.028150632276355194      5.7202215110694095       8.399449335700611
    18   1      1.1209259163145304      6.1441725743969586      12.156630338703025
    19   1      8.7469268181856457     0.68675170708116018      8.4212090046746937
    20   1      9.0675126918072255     0.69069432697333355      11.185011854458754
    21   1      2.8651812425359067     0.66843923449888432       8.096909372178926
    22   1      10.673189781041547      1.6380038624126763      11.348543594206244
    23   1      5.8891140484744566      2.6578298984092981      10.855671925158015
    24   1      6.6656747630207986      2.8797277837324504      3.8043095294545042
    25   1     0.83891996481419984      2.8797277837324504      3.8043095294545042
    26   1      9.5790521621241194       7.925845460602198      3.8043095294545042
    27   1 -4.3599999999999992e-14      3.3640784512465056      2.4321633756321481
    28   1      2.9087663464480173      1.6647507801967321      6.8049897192025082
    29   1      2.9099690466140657      4.0772263307731356       5.227824320684495
    30   1       8.740132197309876      6.0175168859635022                     0.5
    31   1 -4.3599999999999992e-14     0.97139920909375399                     0.5
    32   1      5.8267547982065553     0.97139920909375399                     0.5
    33   1      4.9883377590016496     0.48478255855801938      5.2215946716694814
    34   1        6.87110398865142      4.4178699621414541      10.066231671343044
    35   1      1.1209496080469128      1.6367027082664474      11.954023987368531
    36   1       8.740132197309876      9.3788974631443622      3.8043095294545042
    37   1     0.84125639229129867      9.6065357491926271                     0.5
    38   1      7.9008610616326695      5.5339641455029938      5.2013403509646441
    39   1      5.8267547982065553      3.3640784512465056      2.4321633756321481
    40   1      8.9185670502160033      8.8844095484557499      10.751944761012645
    41   1       8.740132197309876      8.4101961281162527      2.4321633756321481
    42   1      2.9133773991032776      8.4101961281162527      2.4321633756321481
    43   1      9.5813885896011737      4.5604180723228787                     0.5
    44   1      2.9133773991032776      9.3788974631443622      3.8043095294545042
    45   1      2.5978929098210184      5.8786342791002175       10.43305181082895
    46   1      7.9009123242064874      2.1524308546243223      8.3982318846607455
    47   1      10.796290976106025      8.6932738881543479      11.203489205450513
    48   1       4.919182331613138      7.1713824350856692      8.0545527521926275
    49   1      7.0352219286635531       9.155468324394624      11.496695874605322
    50   1      10.810235653727428       7.200332265632551      8.3377141255326954
    51   1      3.1328981405312213      1.1354547382259415      10.872160763300981
    52   1      2.0744574342890343       7.925845460602198      3.8043095294545042
    53   1      2.9133773991032785      5.0461176768697538       1.866758950346576
    54   1      5.8267547982065997                       0       1.866758950346576
    55   1  8.9999999999999983e-16                       0       1.866758950346576
    56   1      7.8988758050185357      4.5604180723228804                     0.5
    57   1      2.0721210068119365      4.5604180723228804                     0.5
    58   1      10.812253204121857      9.6065357491926289                     0.5
    59   1      2.9133773991032776      6.0175168859635022                     0.5
    60   1      10.818812817966746        0.49022648965359      5.2280064942935702
    61   1      2.0642797236739736      5.5281492830285091      5.2281772334572567
    62   1      8.6173744024500127      5.4742063702535546      10.974726428758975
    63   1      8.7459158624810929      4.0791738386993099      5.2119743063611068
    64   1         8.7736835406228      5.0394933689509864       6.570395193095302
    65   1       2.909402004853483      5.0469789825604661      6.5993998642271094
    66   1      5.8354695121705493  -0.0095824520772103249      6.5919632982576903
    67   1  -0.0038107264874762629   -0.011457582974089582      6.5939600487476282
    68   1      5.7902300470637202      6.6662748307581277      6.7917361727666812
    69   1      6.1738946775892742      6.9639508595040942       10.62351234439766
    70   1    0.040106368557447147      6.6805757422254679      6.9938700700109511
    71   1      8.7534684199717088      1.6448795097563451       7.055975626812411
    72   1      10.814589631598912      2.8797277837324491      3.8043095294545042
    73   1      7.0159472433790979     0.85134441286012652      10.935185791074646
    74   1 -4.3599999999999992e-14      4.3327797862746138      3.8043095294545042
    75   1      4.9854984059152576      9.6065357491926289                     0.5
    76   1      3.7522973639175206       7.925845460602198      3.8043095294545042
    77   1      8.7401321973098778      5.0461176768697538       1.866758950346576
    78   1      3.7414916625507582      2.1389898381120558      8.1372853321451473
    79   1      4.8621806404731496      5.6747215603402257      11.458527323111646
    80   1      9.6195403753148021      2.1292718863089117      8.3907891819284384
    81   1     0.92256395431515348      8.3252361219027478      10.782915653021004
    82   1     0.81229137183936551      7.1569706853209389      8.3852054987041598
    83   1      8.0521980367419879      7.5692673617953377      11.856622637643971
    84   1      6.6903550065459285      7.1394660839082169      8.0904422000130189
    85   1 -2.6392672122207578e-05      9.1136900526438644      5.2254127684443405
    86   1      5.8267547982065553      4.3327797862746138      3.8043095294545042
    87   1      5.8279746347889994      9.1225612228920756      5.2146400806296684
    88   1      7.9012122324956335       7.925845460602198      3.8043095294545042
    89   1      10.478573183099437      5.7617356995294458      11.215875897677732
    90   1      4.9878348333923119      2.8797277837324491      3.8043095294545042
    91   1      3.7025481346957365      4.4906467372390262      11.808977825249011
    92   2      2.9091124733421898      5.0480163510158294      5.5699543081928349
    93   2      8.7444547013351439      5.0531789025712408      5.5414357160131154
    94   2      5.8267547982065997                       0     0.84163042435634416
    95   2   -0.015869667469029545       6.676592772351829      8.0182119760663113
    96   2      8.7529713919722933      1.6614391300375577      8.0861737127952349
    97   2      8.7401321973098778      5.0461176768697538     0.84163042435634416
    98   2      2.9133773991032785      5.0461176768697538     0.84163042435634416
    99   2      5.8293372075942731 -0.00036462019754975278      5.5622895810075157
   100   2       8.740132197309876      8.4101961281162527      3.4593945362622507
   101   2      5.7996750855503443      6.6857957824087633      7.8116525864533797
   102   2      2.8728819827597616      1.6665695742049382      7.8185346898621839
   103   2      5.8267547982065553      3.3640784512465056      3.4593945362622507
   104   2 -4.3599999999999992e-14      3.3640784512465056      3.4593945362622507
   105   2   0.0018689380061458639  -0.0083476982133892843      5.5640230625071343
   106   2  8.9999999999999983e-16                       0     0.84163042435634416
   107   2      2.9133773991032776      8.4101961281162527      3.4593945362622507
   108   3      10.247607769922986      4.0774547936877017      7.5247411841936991
   109   3      2.9133773991032772      3.0917580036970467      3.3010724808649616
   110   3 -4.3599999999999992e-14      8.1378756805668004      3.3010724808649616
   111   3      5.8267547982065553      8.1378756805668004      3.3010724808649616
   112   3       4.132202971906807      2.3857284981765692      1.3166483637921624
   113   3      9.9589577701134058      2.3857284981765692      1.3166483637921624
   114   3      1.2188255728034858      7.4318461750463234      1.3166483637921624
   115   3      7.0455803710100851      7.4318461750463234      1.3166483637921624
   116   3      4.1443601916217601      9.0986126436352297      7.8884468889146033
   117   3      6.6540741879507275      7.6840616309822174      10.302289122885071
   118   3       4.726242697273114      8.9681101462891828      11.782944268328308
   119   3       2.945415023804951      7.0270546177468267       7.867690901569409
   120   3      4.6323621382226747      4.1985836972643948      7.7362730522123178
   121   3      7.5147020973943111      9.1252421598644897      7.7960474443681935
   122   3      1.7137856576731236      9.1583921059868008      7.8056695865444663
   123   3      7.5320242950434562      7.6728722451579907      5.8501223330245447
   124   3      1.7229772614587211      7.6705240439857745      5.8917742199508876
   125   3      9.0162440466735667      7.3950102954653092      11.839033972619813
   126   3      6.7669961803575509      2.9154334476622905      10.595942194999335
   127   3      2.4730708067659046      5.0847120935330983      9.8844323993441332
   128   3      11.019127592997375      9.0819013207449721       12.04123703006891
   129   3       4.134229673107142     0.97717983658635332      3.3010724808649616
   130   3       8.740132197309876      3.0917580036970467      3.3010724808649616
   131   3      4.6803784323512483      1.6932525931699358      12.046225623221051
   132   3      2.7571585707179938      9.3950037683547318      10.526382284810694
   133   3      5.8267547982065553      5.3207783573863692      1.3166483637921624
   134   3      9.2242620224558056      5.0300061447907796      11.533149876760985
   135   3      5.9364783116043327      4.7532626278919876      5.8398192138566838
   136   3      10.950609451774806      4.3963672169256274      10.003522592649571
   137   3       8.742220383135006      7.0363234081518948      7.8847977542761827
   138   3      1.6945518262997477      2.3857284981765683      1.3166483637921624
   139   3      9.9400560631378632      7.6514281431789648      5.8428017538555377
   140   3      9.9609844713137417     0.97717983658635332      3.3010724808649616
   141   3      7.0476070722104192      6.0232975134561082      3.3010724808649616
   142   3      10.031072937983787      9.1138476979218925      7.7250544824175584
   143   3      1.0614837899003899      4.0554536942565163      7.7846447757415662
   144   3      7.0612098791210229       4.069805532170097      7.9333968961369026
   145   3      2.9762668071026797      9.7982331384110584       5.863366107941177
   146   3       8.727093561343569      9.8136563478696743      5.8446799302574064
   147   3      4.6539654730588982      2.6705337348498497      5.8955299095650542
   148   3      10.544828986669247      2.5097277109333369      5.6799740847146722
   149   3      4.6079292254030255      7.4318461750463234      1.3166483637921624
   150   3      1.6925251250994144     0.97717983658635321      3.3010724808649616
   151   3       10.69086163120166      1.8435225010340019      10.412891514202483
   152   3      8.7612271850692771     0.64473153284656526      12.085046068179526
   153   3      1.9507868672233639      5.9295260967067582      12.578331256015888
   154   3      6.9707393009722187      5.2931967682314696      10.421863025221203
   155   3     0.85011747789689218     0.93326628634508202      12.539964656574297
   156   3      3.0691053280490341      7.2811700211697845      10.968332087000389
   157   3      7.5213066245063471      2.3857284981765683      1.3166483637921624
   158   3      2.3757751191948504      1.5527742986830151      10.441460344402572
   159   3      10.434684023609625      7.4318461750463234      1.3166483637921624
   160   3      5.8088403322867412      1.9999808432682251      7.8947952712025797
   161   3   -0.083851230939576651      2.0275765938513461      7.7753939281877811
   162   3      1.2208522740038206      6.0232975134561082      3.3010724808649616
   163   3      7.1139000501993781      2.6680123433414651      5.9489423472961205
   164   3      1.2554396530614995      2.6339328586359803      5.8015412930896417
   165   3      4.1554404935079079      7.6961874865085447      5.8677124070558397
   166   3      4.6059025242026905      6.0232975134561082      3.3010724808649616
   167   3      6.9207708702746364      8.9119693736344043      12.399124891585904
   168   3      1.2356856769407345      3.3908408728492394      11.516173607446564
   169   3       9.173856677096083      9.4307648780525675      10.014700796590592
   170   3      9.1508779375634699      2.9669993635049878      12.327369361565765
   171   3     0.12566754144123368      4.7326530008021592      5.7145873202967747
   172   3      4.1401301435867479      3.2085588382375341      9.9674246304584386
   173   3      11.301516150757211      6.1855012332710144      11.630353427578791
   174   3      4.0292775122305029      3.8746652888434414      12.417684676814957
   175   3      6.4237605387114698     0.51254184543703496      10.278668731069523
   176   3      5.2018482431417299      6.4404179048084007      11.880148467805137
   177   3     0.46090395599206546       8.003899032989251      10.022330297543425
   178   3 -4.3599999999999992e-14      5.3207783573863692      1.3166483637921624
   179   3       8.740132197309876      0.2746606805166148      1.3166483637921624
   180   3      2.9133773991032776      0.2746606805166148      1.3166483637921624
   181   3      10.432657322409289      6.0232975134561082      3.3010724808649616
   182   3       7.519279923306013     0.97717983658635321      3.3010724808649616
   183   4   -0.061212910793359727      3.3689550076549928      6.7341002215592622
   184   4      5.8503521165960448      3.3783425021333948      6.8883316309480538
   185   4      2.9133773991032776      1.6820392256232506      2.2987940834959804
   186   4 -4.3599999999999992e-14      6.7281569024930041      2.2987940834959804
   187   4      2.9193348403926285      8.4163850252247094      6.8677627246479531
   188   4       8.751425587591152      8.4140021329922448      6.8546019773059879
   189   4      5.8267547982065553      6.7281569024930041      2.2987940834959804
   190   4       8.740132197309876      1.6820392256232506      2.2987940834959804
