(written by ASE)

190 atoms
4 atom types

0.0      11.653509596413199  xlo xhi
0.0        10.0922353537395  ylo yhi
0.0                      30  zlo zhi
                      0                       0                       0  xy xz yz

Atoms # atomic

     1   1     0.84049979457604573     0.46158811154542578       5.199228587011925
     2   1      9.5801714485869613      5.5482506903166335       5.136327071129573
     3   1       10.73805369003348       3.494699699690953      10.160801745712186
     4   1      3.7423536012726046      5.5319750281575795      5.1949151300461676
     5   1      8.5365819069341349      3.0912740814282635      12.142091770620308
     6   1      6.6931414958000728     0.48541683380680506      5.2165659742921839
     7   1      3.6643335222794926      2.9057293111385496      10.370034593717643
     8   1      2.0165399790121459      2.1768478705623839      8.1016889789006861
     9   1      5.2344478813456243      8.8013726742548393      11.156394672528243
    10   1      3.7546337913945762      4.5604180723228787                     0.5
    11   1      4.8291236271610121     0.50253185093708197      12.047543435219419
    12   1      6.6680111904978974      9.6065357491926271                     0.5
    13   1      3.0559141433567327      7.6213254137835209      9.8407764105554403
    14   1      3.0378902547846747      9.2376049311749995      11.277460771988208
    15   1      0.8450773392668155      3.9735158489516658      10.968092433908547
    16   1      5.7499690458993005      5.7331565428373006      8.1218281209738947
    17   1   -0.048513946177727175      5.6579969454916084      8.3512738093191174
    18   1       1.081806856829403      5.9132505990862185       12.52672719786246
    19   1      8.7227611444926083     0.63942217599858631       8.436253743293781
    20   1      9.0529181167018162      0.2915724310352717      11.314457480352091
    21   1      2.8194674718697268     0.70332129678260558      8.1189422100710988
    22   1      10.941399230368967      1.5576848689976484      11.429259656467211
    23   1      5.8158042051221877      2.7684701986708578      10.770657523691487
    24   1      6.6656747630207986      2.8797277837324504      3.8043095294545042
    25   1     0.83891996481419984      2.8797277837324504      3.8043095294545042
    26   1      9.5790521621241194       7.925845460602198      3.8043095294545042
    27   1 -4.3599999999999992e-14      3.3640784512465056      2.4321633756321481
    28   1      2.9310591964098731      1.6982516137717685      6.7982069969930707
    29   1      2.9104604003257388      4.0701337840805918      5.2061274406211275
    30   1       8.740132197309876      6.0175168859635022                     0.5
    31   1 -4.3599999999999992e-14     0.97139920909375399                     0.5
    32   1      5.8267547982065553     0.97139920909375399                     0.5
    33   1      5.0141106369493453     0.49553230465987952      5.2133124612161668
    34   1      6.8831265912725428      4.3709736900524758      10.103436465208857
    35   1      1.2127383420454996      2.0312265904334286      12.148002203183331
    36   1       8.740132197309876      9.3788974631443622      3.8043095294545042
    37   1     0.84125639229129867      9.6065357491926271                     0.5
    38   1      7.8939725353031456      5.5361950060012353      5.1767939577957662
    39   1      5.8267547982065553      3.3640784512465056      2.4321633756321481
    40   1      9.0139527362217891      8.5647774841865658      10.603346224686334
    41   1       8.740132197309876      8.4101961281162527      2.4321633756321481
    42   1      2.9133773991032776      8.4101961281162527      2.4321633756321481
    43   1      9.5813885896011737      4.5604180723228787                     0.5
    44   1      2.9133773991032776      9.3788974631443622      3.8043095294545042
    45   1      2.4982560180505353      5.7859150005201831      10.229177425224167
    46   1      7.9298493315389482      2.1416282274922609      8.4066383315875211
    47   1      10.938675957931887      8.6751425339672696      11.392239826329766
    48   1      4.9938186554963897      7.2441601863249598      8.0800047535971924
    49   1      6.9547572016963528      9.2844620028931892      12.061360622092538
    50   1      10.775587462033128      7.1283990701339279      8.2574499711610407
    51   1      2.8246011761707472      1.1365286920910598      10.841376449036908
    52   1      2.0744574342890343       7.925845460602198      3.8043095294545042
    53   1      2.9133773991032785      5.0461176768697538       1.866758950346576
    54   1      5.8267547982065997                       0       1.866758950346576
    55   1  8.9999999999999983e-16                       0       1.866758950346576
    56   1      7.8988758050185357      4.5604180723228804                     0.5
    57   1      2.0721210068119365      4.5604180723228804                     0.5
    58   1      10.812253204121857      9.6065357491926289                     0.5
    59   1      2.9133773991032776      6.0175168859635022                     0.5
    60   1      10.817451818707235     0.46113011879242377      5.2037781732350963
    61   1      2.0617502865730852      5.5222776279618015       5.226273049302633
    62   1      8.3138168522324953       5.412019492807298      10.911521024573466
    63   1      8.7450383890484424      4.0875727661044277      5.1482760126670142
    64   1      8.7866617074918558      5.0400182951476724      6.5200669747813045
    65   1      2.9381160930547816      5.0243995576422211      6.5797285419020159
    66   1      5.8556099785395892   -0.021260619166286344      6.5773432992694669
    67   1  -0.0088317237119142182   -0.043927315528747762      6.5679520777034357
    68   1       5.873592730222807      6.6998643518911214      6.7911618464230319
    69   1      6.1167970246216532      7.0601029167773621      10.800591196419587
    70   1  -0.0076898951196453192       6.577460772646436      6.9330244846371549
    71   1      8.6949748167573251      1.5780084220976398      7.0440561508222475
    72   1      10.814589631598912      2.8797277837324491      3.8043095294545042
    73   1       7.125140938960679     0.82394394080425859      10.824938684099765
    74   1 -4.3599999999999992e-14      4.3327797862746138      3.8043095294545042
    75   1      4.9854984059152576      9.6065357491926289                     0.5
    76   1      3.7522973639175206       7.925845460602198      3.8043095294545042
    77   1      8.7401321973098778      5.0461176768697538       1.866758950346576
    78   1       3.733400623190716      2.1381143083616831      8.1950332233023939
    79   1      4.9605884111606215      5.5245947746778254      12.068964592478856
    80   1      9.6256834236498463      2.0597332417034537      8.3422929565603585
    81   1      1.0019212309403021      8.6956557939445389       10.55545048165761
    82   1     0.78579511685391734       7.112047137509542      8.3090897452011596
    83   1      8.1866222255157517      7.9710022535866676      12.236299315512138
    84   1      6.6938396193377825      7.1470842092218598      8.1752756517651086
    85   1  -0.0057917841575740722      9.0938096351906523      5.1886171930375991
    86   1      5.8267547982065553      4.3327797862746138      3.8043095294545042
    87   1      5.8484604526442432      9.1257726143037594      5.1887409615075066
    88   1      7.9012122324956335       7.925845460602198      3.8043095294545042
    89   1      10.617209521884215      5.7409102604244735      11.721028602951217
    90   1      4.9878348333923119      2.8797277837324491      3.8043095294545042
    91   1      3.1066018004057661      4.4796376174565671      12.302097161784676
    92   2      2.9111320300172321       5.040115727859801      5.5508147647389654
    93   2      8.7487039334655829       5.057240270055944       5.492199044690822
    94   2      5.8267547982065997                       0     0.84163042435634416
    95   2   -0.038515191287947538      6.6125158618660009      7.9611441085090542
    96   2      8.7421523279063891      1.6055407651812101      8.0740592419663635
    97   2      8.7401321973098778      5.0461176768697538     0.84163042435634416
    98   2      2.9133773991032785      5.0461176768697538     0.84163042435634416
    99   2       5.849666330140777  -0.0023689678370913624      5.5482080553451363
   100   2       8.740132197309876      8.4101961281162527      3.4593945362622507
   101   2      5.8314705451903555      6.7107323594776238      7.8160996510121992
   102   2      2.8801417617296625      1.6879678139144065      7.8234038031939379
   103   2      5.8267547982065553      3.3640784512465056      3.4593945362622507
   104   2 -4.3599999999999992e-14      3.3640784512465056      3.4593945362622507
   105   2   0.0040109738796305621   -0.031135846770389591      5.5383190999104368
   106   2  8.9999999999999983e-16                       0     0.84163042435634416
   107   2      2.9133773991032776      8.4101961281162527      3.4593945362622507
   108   3      10.309541620556779      3.9999299935939741      7.6277505472045446
   109   3      2.9133773991032772      3.0917580036970467      3.3010724808649616
   110   3 -4.3599999999999992e-14      8.1378756805668004      3.3010724808649616
   111   3      5.8267547982065553      8.1378756805668004      3.3010724808649616
   112   3       4.132202971906807      2.3857284981765692      1.3166483637921624
   113   3      9.9589577701134058      2.3857284981765692      1.3166483637921624
   114   3      1.2188255728034858      7.4318461750463234      1.3166483637921624
   115   3      7.0455803710100851      7.4318461750463234      1.3166483637921624
   116   3      4.1608311763523904      9.1327408923508688      7.7832894970999087
   117   3      6.1773882677215601      7.8968642772279551       10.28211493164099
   118   3      4.5663070375097607      9.1145065872353275      11.824304265219535
   119   3      2.9347337536556304       7.071981802473748      7.8878719707684901
   120   3       4.625174246493251       4.166978597730429      7.6076148479911119
   121   3      7.5727019783743081       9.153781300931195        7.69893516754055
   122   3      1.7431517748348575      9.1847871992234609      7.7571990762679484
   123   3      7.5269168127977375      7.6957284169546103      5.7837894147729596
   124   3      1.7077273783895539        7.67794316114552      5.8513141043286909
   125   3      8.7874124974208332      7.5708531326479811      11.540496898619198
   126   3       6.797948811738963      2.8602771877773665      10.819552900163282
   127   3      2.1748096767733869         4.9316696976448      9.9353268350414048
   128   3       11.09856849999079      9.1819995297621553      12.183210963279645
   129   3       4.134229673107142     0.97717983658635332      3.3010724808649616
   130   3       8.740132197309876      3.0917580036970467      3.3010724808649616
   131   3      4.7527870253158344      1.4661773229730499      12.111278973482294
   132   3      2.3763853860031432      9.5423056188759947      10.633634950671738
   133   3      5.8267547982065553      5.3207783573863692      1.3166483637921624
   134   3      9.1342632628334552      5.0707037309335599      11.327062848999351
   135   3      5.9864517345708874      4.7432169063140863      5.7320631953215138
   136   3      11.242515862682998      4.2892781550101766      9.9805982006526008
   137   3      8.7652549551099561      7.0377237369445389      7.7651796914039037
   138   3      1.6945518262997477      2.3857284981765683      1.3166483637921624
   139   3      9.9611293424114162      7.6540379897120641      5.7350762514772837
   140   3      9.9609844713137417     0.97717983658635332      3.3010724808649616
   141   3      7.0476070722104192      6.0232975134561082      3.3010724808649616
   142   3      10.030004518243222      9.1237345856802055      7.6299591291273456
   143   3      1.1097493288378446      4.0346630458635371       7.675032518382392
   144   3      7.0604671468075546      4.0332885308750139      7.7858066697141952
   145   3      2.9550103538868342      9.8217035401997705      5.7761456243877163
   146   3      8.7606924759909521      9.8111438802136473      5.7051244107682715
   147   3      4.6712949195810332      2.6575750427556479      5.7344627392323373
   148   3      10.411687119221552      2.5756507538901228      5.6775624373145011
   149   3      4.6079292254030255      7.4318461750463234      1.3166483637921624
   150   3      1.6925251250994144     0.97717983658635321      3.3010724808649616
   151   3      10.527289549786111      1.7827009412479857      10.591589737071596
   152   3      8.3693319216587927     0.73625182111245324      11.872620889720467
   153   3       1.966443258438437      5.8879855017156784       12.93974843941103
   154   3      7.0775507530084694      5.3268019722165088      10.012329626084442
   155   3     0.87690766217215144      1.2154326975963572      12.533979852651584
   156   3       3.169397589959702      7.1590298056186228      10.669175125091803
   157   3      7.5213066245063471      2.3857284981765683      1.3166483637921624
   158   3      2.4648161366014114      1.9690191695382713      10.531274520592991
   159   3      10.434684023609625      7.4318461750463234      1.3166483637921624
   160   3      5.7483664817324334      2.0014146601845475      7.7977057932212004
   161   3    -0.07855469322394612      1.9545609373744919      7.7100119905730882
   162   3      1.2208522740038206      6.0232975134561082      3.3010724808649616
   163   3      7.1231920523724428       2.575800976704262      5.8644244385794861
   164   3      1.1821200993515983      2.6187759632016485      5.7296736635470973
   165   3      4.1296273406274295      7.6801428633407047      5.8414098413223101
   166   3      4.6059025242026905      6.0232975134561082      3.3010724808649616
   167   3      7.0422435675724868      8.5986695837577081      12.741004134762916
   168   3     0.99797384816263301      3.6458433052143446      11.871342871108775
   169   3      9.3344779513196414      9.3884804020904742      10.126368394052303
   170   3      9.2146109008867434      3.0354447056295806      12.803299290017678
   171   3   -0.042788891468776215      4.7502797117291413      5.7110797190038314
   172   3      4.5237214973971129      3.2159628238459286      10.043275782086932
   173   3       11.43592909770933      6.2338741289630004      11.824884650153686
   174   3      4.0734330379959083      4.4605739225145484       12.21629528630376
   175   3      6.5067554558305645     0.18561171939089022      10.432248113658355
   176   3      5.6295652103098526      6.2499676609131969      11.926735563715802
   177   3     0.39886867646689705      8.1918449439710574      10.007117947761531
   178   3 -4.3599999999999992e-14      5.3207783573863692      1.3166483637921624
   179   3       8.740132197309876      0.2746606805166148      1.3166483637921624
   180   3      2.9133773991032776      0.2746606805166148      1.3166483637921624
   181   3      10.432657322409289      6.0232975134561082      3.3010724808649616
   182   3       7.519279923306013     0.97717983658635321      3.3010724808649616
   183   4   -0.077333328520882108      3.3302691606487338      6.7013678516833979
   184   4      5.8718133217680908        3.35588917253668       6.769992559382727
   185   4      2.9133773991032776      1.6820392256232506      2.2987940834959804
   186   4 -4.3599999999999992e-14      6.7281569024930041      2.2987940834959804
   187   4      2.9270597151373829      8.4356970041651813      6.8083133542858478
   188   4      8.7754894751282837      8.4175530458425403      6.7460326539917572
   189   4      5.8267547982065553      6.7281569024930041      2.2987940834959804
   190   4       8.740132197309876      1.6820392256232506      2.2987940834959804
