(written by ASE)

190 atoms
4 atom types

0.0      11.653509596413199  xlo xhi
0.0        10.0922353537395  ylo yhi
0.0                      30  zlo zhi
                      0                       0                       0  xy xz yz

Atoms # atomic

     1   1     0.83626226262023873     0.48352002137193562      5.2180935427119559
     2   1      9.5846628400277982      5.5467323351930684      5.1942475445995395
     3   1       10.63994847917826      3.5896337639764848      10.257704725988374
     4   1      3.7490513260728879      5.5341989801945788      5.2236600309424857
     5   1      8.3897909839039375      3.1058872863484601      11.877925801463144
     6   1      6.6750942281633936     0.48216408307130748      5.2220003310061278
     7   1      3.3093609768002987      3.0421117901213259      10.319955589675482
     8   1      2.0092572820676855      2.1300605807822057      8.0816302421997221
     9   1      5.1963426675000282       8.887028879125495      11.014665215138775
    10   1      3.7546337913945762      4.5604180723228787                     0.5
    11   1       4.873218238555916     0.64838506206431124      12.077309609232183
    12   1      6.6680111904978974      9.6065357491926271                     0.5
    13   1      3.3865373208234715      7.6966875865840505      10.185367918106401
    14   1      2.9020112482664513      9.0785147161422302      11.352802395348824
    15   1     0.80350998809264629      3.9854692238675562      10.922252598048079
    16   1      5.7540130937228708      5.6989328548953146      8.0807219285266019
    17   1   -0.033477556717989777       5.705238674558073      8.3813798861637405
    18   1      1.1026468492458388      6.1108733148292362      12.264425241612198
    19   1      8.7483926081182126     0.67995495953833895      8.4248718365807171
    20   1      9.1046405683112948     0.62299363511590344      11.219844138698752
    21   1      2.8474157277219279     0.69484640565210987      8.1077007908105383
    22   1      10.702173748699691      1.6273485438356285      11.356593581328466
    23   1      5.9004953525672956      2.6598159721451928      10.875928632832066
    24   1      6.6656747630207986      2.8797277837324504      3.8043095294545042
    25   1     0.83891996481419984      2.8797277837324504      3.8043095294545042
    26   1      9.5790521621241194       7.925845460602198      3.8043095294545042
    27   1 -4.3599999999999992e-14      3.3640784512465056      2.4321633756321481
    28   1      2.9050642382506688       1.669473530948187      6.7615106248561325
    29   1      2.9065479164857027       4.075441288987216      5.2291696369167555
    30   1       8.740132197309876      6.0175168859635022                     0.5
    31   1 -4.3599999999999992e-14     0.97139920909375399                     0.5
    32   1      5.8267547982065553     0.97139920909375399                     0.5
    33   1      4.9917725530371921     0.48524167526582479      5.2214150515320217
    34   1      6.8679047421354547      4.3852590456401099      10.035093340796214
    35   1      1.1364927812720924       1.653289880910499      11.995667281992194
    36   1       8.740132197309876      9.3788974631443622      3.8043095294545042
    37   1     0.84125639229129867      9.6065357491926271                     0.5
    38   1      7.9023728560524651      5.5341051680969215      5.1980491211019508
    39   1      5.8267547982065553      3.3640784512465056      2.4321633756321481
    40   1      8.9535167628573085      8.8102002270443176      10.726149625395847
    41   1       8.740132197309876      8.4101961281162527      2.4321633756321481
    42   1      2.9133773991032776      8.4101961281162527      2.4321633756321481
    43   1      9.5813885896011737      4.5604180723228787                     0.5
    44   1      2.9133773991032776      9.3788974631443622      3.8043095294545042
    45   1      2.5679113733680845      5.8675049316141692      10.363515225428616
    46   1      7.9084449969525652      2.1519983079244267      8.3954492100024378
    47   1       10.78391065164085      8.7107703855075655      11.251335400899281
    48   1      4.9388661266220479      7.1759476430325009      8.0604565949578362
    49   1      6.9903139065624993       9.150392498148209      11.591856945355101
    50   1      10.809772802148595      7.1873194580236186      8.3143121472218411
    51   1      3.0475209683192981      1.1464515891608842      10.882041878789071
    52   1      2.0744574342890343       7.925845460602198      3.8043095294545042
    53   1      2.9133773991032785      5.0461176768697538       1.866758950346576
    54   1      5.8267547982065997                       0       1.866758950346576
    55   1  8.9999999999999983e-16                       0       1.866758950346576
    56   1      7.8988758050185357      4.5604180723228804                     0.5
    57   1      2.0721210068119365      4.5604180723228804                     0.5
    58   1      10.812253204121857      9.6065357491926289                     0.5
    59   1      2.9133773991032776      6.0175168859635022                     0.5
    60   1      10.821992792027793     0.48550196143669605      5.2274473142843805
    61   1      2.0657522977147216      5.5255889392307935      5.2279155842349398
    62   1      8.4821605978805863       5.501905504057687      10.977240155592634
    63   1      8.7417220245233196      4.0802890339113169      5.2013443382924311
    64   1      8.7725761223581049      5.0408970438148577      6.5641019577123876
    65   1      2.9139468288251056      5.0439354988654479      6.5987008302219765
    66   1       5.838201152816672   -0.010997716773687679       6.591034660912805
    67   1  -0.0043563196436274968   -0.017447704998212927      6.5931859152798493
    68   1      5.8035987515218705      6.6709937691226386        6.77076792239209
    69   1      6.1787559002894969       7.002806623875296      10.669552843704288
    70   1    0.025257935861243058      6.6558594180131774      6.9777343685917224
    71   1      8.7438101367309908      1.6364388586815763      7.0517397043932704
    72   1      10.814589631598912      2.8797277837324491      3.8043095294545042
    73   1      7.0183249465848636     0.84570078203824317       10.88766231378354
    74   1 -4.3599999999999992e-14      4.3327797862746138      3.8043095294545042
    75   1      4.9854984059152576      9.6065357491926289                     0.5
    76   1      3.7522973639175206       7.925845460602198      3.8043095294545042
    77   1      8.7401321973098778      5.0461176768697538       1.866758950346576
    78   1      3.7216641134901756      2.1324992043049549      8.1525155892632313
    79   1      4.8628554176951821      5.6369616630217907      11.565620079946569
    80   1      9.6183745225658441      2.1169934690735963      8.3883383428623688
    81   1      0.9722891292674074      8.3664287778282826      10.752024957104648
    82   1     0.81453269473412526      7.1443407805704764      8.3721091771278431
    83   1      8.0543772886253571      7.6168915508237705      11.933806176181713
    84   1      6.6713628701629526      7.1449890426309857      8.1032917875412345
    85   1  -0.0020815432781786567      9.1090399222741372      5.2223172207880602
    86   1      5.8267547982065553      4.3327797862746138      3.8043095294545042
    87   1      5.8288239262498225      9.1225229772377663      5.2120596861409592
    88   1      7.9012122324956335       7.925845460602198      3.8043095294545042
    89   1      10.617811270506497      5.7345188676237315      11.402379922013754
    90   1      4.9878348333923119      2.8797277837324491      3.8043095294545042
    91   1      3.5628772217586366      4.5015384345676051      11.851284636347348
    92   2      2.9112648971414261       5.046892571789714      5.5690926839363959
    93   2       8.747503223844836      5.0537445842062674       5.534664202656125
    94   2      5.8267547982065997                       0     0.84163042435634416
    95   2   -0.013547178419767103      6.6640934647934067      8.0053522045022856
    96   2      8.7522097161844048      1.6520089940927276      8.0824522100174754
    97   2      8.7401321973098778      5.0461176768697538     0.84163042435634416
    98   2      2.9133773991032785      5.0461176768697538     0.84163042435634416
    99   2      5.8322986671179784  -0.0014433231476534288       5.561368295551449
   100   2       8.740132197309876      8.4101961281162527      3.4593945362622507
   101   2      5.8010243270690793      6.6841277214258499      7.7946005890032062
   102   2      2.8767346739700521      1.6681104211001345      7.7858462561727677
   103   2      5.8267547982065553      3.3640784512465056      3.4593945362622507
   104   2 -4.3599999999999992e-14      3.3640784512465056      3.4593945362622507
   105   2   0.0043438474075566556   -0.012653727854715389      5.5632494124219729
   106   2  8.9999999999999983e-16                       0     0.84163042435634416
   107   2      2.9133773991032776      8.4101961281162527      3.4593945362622507
   108   3      10.288736487722256      4.0475806316051193      7.5335437099484865
   109   3      2.9133773991032772      3.0917580036970467      3.3010724808649616
   110   3 -4.3599999999999992e-14      8.1378756805668004      3.3010724808649616
   111   3      5.8267547982065553      8.1378756805668004      3.3010724808649616
   112   3       4.132202971906807      2.3857284981765692      1.3166483637921624
   113   3      9.9589577701134058      2.3857284981765692      1.3166483637921624
   114   3      1.2188255728034858      7.4318461750463234      1.3166483637921624
   115   3      7.0455803710100851      7.4318461750463234      1.3166483637921624
   116   3      4.1412398108871349      9.0961573523583539      7.8689248637337172
   117   3      6.6293996294245288      7.7425425368678322      10.191536459024103
   118   3      4.6270410569564513      9.0624395990670088       11.76838776104478
   119   3      2.9535188628163067      7.0270212202351248      7.8681830030599151
   120   3      4.6421137661265766      4.2052851090390284      7.7082292728203967
   121   3      7.5332735011906831      9.1239916732146664      7.7796654094727931
   122   3      1.7262674769957007      9.1591126902614732      7.7900613687511298
   123   3      7.5379419854988168      7.6769226967523787      5.8390212818852572
   124   3       1.713429307343971      7.6743671976660348       5.871629269851649
   125   3      8.9636774514633633      7.4548865113698639      11.778165705618493
   126   3      6.7708753113197027      2.9411285895530255      10.596666981965939
   127   3      2.4078887585983266      5.0569067781026797      9.8916131687992994
   128   3       11.09501168386946      9.1213478338782696      12.042352929501913
   129   3       4.134229673107142     0.97717983658635332      3.3010724808649616
   130   3       8.740132197309876      3.0917580036970467      3.3010724808649616
   131   3      4.6920246831016001      1.5758485262872528      12.051087928918561
   132   3      2.6880535278191009      9.5028604577787004      10.525214198021489
   133   3      5.8267547982065553      5.3207783573863692      1.3166483637921624
   134   3      9.1683280996560388      5.0432586688373293      11.479126795045747
   135   3      5.9605933026695359      4.7555886547267248      5.8168909333020293
   136   3      11.005691460904307      4.3918348352200569      9.9102717020834774
   137   3      8.7385863220497768       7.048357274945463      7.8708252533801524
   138   3      1.6945518262997477      2.3857284981765683      1.3166483637921624
   139   3      9.9414541384573702      7.6449982612444005      5.8143338965615747
   140   3      9.9609844713137417     0.97717983658635332      3.3010724808649616
   141   3      7.0476070722104192      6.0232975134561082      3.3010724808649616
   142   3      10.029368416820303      9.1166952057148247      7.6975641804431429
   143   3      1.0572854300349606      4.0759464087231354      7.7670755665339115
   144   3      7.0489012380612923      4.0697693400311179      7.9155785872025159
   145   3      2.9772376597618204      9.8093869500508433      5.8276385024186448
   146   3      8.7302139461359758      9.8183886762716348      5.8063436795207135
   147   3      4.6570333920565838      2.6584333400746298      5.8591933414062707
   148   3      10.518850447493854      2.5391515738991006        5.65753321111817
   149   3      4.6079292254030255      7.4318461750463234      1.3166483637921624
   150   3      1.6925251250994144     0.97717983658635321      3.3010724808649616
   151   3      10.654707097472834      1.7787067137669827      10.420504240203122
   152   3      8.6783135947809651     0.60332601267630326      12.072661441304506
   153   3      1.9540402948418625      5.8918633458627667       12.65046317221994
   154   3      7.0144542226645488      5.2911454860669496       10.34659448767407
   155   3     0.83543572282239587     0.95682229249339201      12.576657018217411
   156   3      3.0765106430935711      7.1967048572935983       10.93112042571765
   157   3      7.5213066245063471      2.3857284981765683      1.3166483637921624
   158   3      2.4003555183574821      1.7077578647532017      10.483337376093841
   159   3      10.434684023609625      7.4318461750463234      1.3166483637921624
   160   3      5.7937012759819035       2.018404558366472      7.8796787527616381
   161   3    -0.11570712964051262      2.0077929670802668      7.7639528771087933
   162   3      1.2208522740038206      6.0232975134561082      3.3010724808649616
   163   3      7.1262579792474012      2.6515016516275525      5.9393430157590128
   164   3      1.2547894244230655      2.6328996498835973      5.8090383862846071
   165   3      4.1502102560045468      7.6998240092294639      5.8670677152956019
   166   3      4.6059025242026905      6.0232975134561082      3.3010724808649616
   167   3      7.0515933995608746      8.9262106906060446      12.527382443100111
   168   3      1.2331145379964275      3.4063389206892194      11.531447234047281
   169   3      9.1775983785710036      9.4612471025486702      10.055732739475582
   170   3      9.1504331888198838      2.9339803867349352      12.408142867900986
   171   3    0.078266082048154481      4.7342036593414747      5.6894596359181406
   172   3      4.1906751712638917      3.1643794667686134      9.9805684278463467
   173   3      11.385724360616967      6.2541189670793891      11.590652662589855
   174   3      4.0487175564200077      3.9770082115034642      12.462990668129114
   175   3      6.4354432870011964     0.40486599697709419      10.269689378945635
   176   3      5.2977234474601618      6.4095598118813584      11.901647555620587
   177   3     0.40113815780463902      8.0538724052013322      10.065754463144547
   178   3 -4.3599999999999992e-14      5.3207783573863692      1.3166483637921624
   179   3       8.740132197309876      0.2746606805166148      1.3166483637921624
   180   3      2.9133773991032776      0.2746606805166148      1.3166483637921624
   181   3      10.432657322409289      6.0232975134561082      3.3010724808649616
   182   3       7.519279923306013     0.97717983658635321      3.3010724808649616
   183   4   -0.041034585769278216      3.3488582622039056      6.7185307202908318
   184   4       5.869434215770271      3.3814936945913345      6.8727080607490398
   185   4      2.9133773991032776      1.6820392256232506      2.2987940834959804
   186   4 -4.3599999999999992e-14      6.7281569024930041      2.2987940834959804
   187   4      2.9321299351222696      8.4170890885084315      6.8593798188969339
   188   4       8.754390943481269      8.4083948290009456      6.8310059820568254
   189   4      5.8267547982065553      6.7281569024930041      2.2987940834959804
   190   4       8.740132197309876      1.6820392256232506      2.2987940834959804
