(written by ASE)

190 atoms
4 atom types

0.0      11.653509596413199  xlo xhi
0.0        10.0922353537395  ylo yhi
0.0                      30  zlo zhi
                      0                       0                       0  xy xz yz

Atoms # atomic

     1   1     0.84352592021233408      0.4592534556626755      5.2076949634822034
     2   1      9.5838279619991766      5.5423064672169122      5.1530127898764375
     3   1      10.707810605988582      3.5520480169650637       10.17309923349117
     4   1      3.7429607603669179      5.5278965008084668      5.2062766392224198
     5   1      8.5008558262789631      3.1266428359680591      12.081869129010366
     6   1      6.6896384660814325      0.4819749091615832      5.2189790330363284
     7   1      3.6130038838098484      2.9490509346077878      10.328131220022406
     8   1      2.0143297797406587      2.1742747004173637      8.0713112596936067
     9   1      5.2442953047700716        8.83590720843684      11.136851401729112
    10   1      3.7546337913945762      4.5604180723228787                     0.5
    11   1      4.8222926477470152     0.52278064371585453      12.094469924255041
    12   1      6.6680111904978974      9.6065357491926271                     0.5
    13   1      3.1072470174093105      7.6667478216675953      9.9358553677114223
    14   1      2.9708913192622597      9.2449843298131995      11.259180635032081
    15   1     0.81123534097342087      4.0018463504807542      10.911175836131296
    16   1      5.7516195165104085      5.7266961700069707      8.1030298269503529
    17   1   -0.048844340010583583      5.6682258421090825      8.3402777798259606
    18   1      1.1066040786115865      5.9802742095522223      12.525088336709178
    19   1       8.730615617372754     0.64681495121491039      8.4330832815406982
    20   1      9.1238309131258308     0.34586737546189467      11.339953376881345
    21   1      2.8313926656792172     0.67723247597045455      8.0817506136662871
    22   1      10.871638273878361      1.5602737603296837      11.406485449071704
    23   1      5.8212827642119018      2.7229532410708157      10.848808771447757
    24   1      6.6656747630207986      2.8797277837324504      3.8043095294545042
    25   1     0.83891996481419984      2.8797277837324504      3.8043095294545042
    26   1      9.5790521621241194       7.925845460602198      3.8043095294545042
    27   1 -4.3599999999999992e-14      3.3640784512465056      2.4321633756321481
    28   1      2.9247158197447853      1.6811445102118536      6.7777122076370402
    29   1      2.9146672012762691      4.0730595576109687      5.2160475316628059
    30   1       8.740132197309876      6.0175168859635022                     0.5
    31   1 -4.3599999999999992e-14     0.97139920909375399                     0.5
    32   1      5.8267547982065553     0.97139920909375399                     0.5
    33   1      5.0064010831022667     0.49172167881275602        5.21915485255506
    34   1      6.8949892816849569       4.386596737707503      10.063977248644767
    35   1      1.2107680483394729      1.8695189622328412      12.108737784787484
    36   1       8.740132197309876      9.3788974631443622      3.8043095294545042
    37   1     0.84125639229129867      9.6065357491926271                     0.5
    38   1      7.8949429235173829      5.5385566760189011      5.1889367057034992
    39   1      5.8267547982065553      3.3640784512465056      2.4321633756321481
    40   1      9.0058931201923649        8.61276788201687      10.602978861768614
    41   1       8.740132197309876      8.4101961281162527      2.4321633756321481
    42   1      2.9133773991032776      8.4101961281162527      2.4321633756321481
    43   1      9.5813885896011737      4.5604180723228787                     0.5
    44   1      2.9133773991032776      9.3788974631443622      3.8043095294545042
    45   1       2.464582460083272      5.8347270137670169      10.247165666914094
    46   1      7.9243663290545294      2.1438245713386075      8.4003750132401258
    47   1      10.882102352801784      8.7190684329279549      11.390029922242759
    48   1      4.9868054018528678      7.2211250214346885      8.0693614173261512
    49   1      6.9390175949100197      9.2404423298901435      11.965351616943623
    50   1      10.781971296038522      7.1425217977330711       8.267852846374403
    51   1      2.8580579618540978      1.1521457033460492      10.888526382028067
    52   1      2.0744574342890343       7.925845460602198      3.8043095294545042
    53   1      2.9133773991032785      5.0461176768697538       1.866758950346576
    54   1      5.8267547982065997                       0       1.866758950346576
    55   1  8.9999999999999983e-16                       0       1.866758950346576
    56   1      7.8988758050185357      4.5604180723228804                     0.5
    57   1      2.0721210068119365      4.5604180723228804                     0.5
    58   1      10.812253204121857      9.6065357491926289                     0.5
    59   1      2.9133773991032776      6.0175168859635022                     0.5
    60   1      10.812369022904011     0.46813876982069724      5.2159668956482497
    61   1      2.0630401433060044      5.5247111753168037      5.2276953419636749
    62   1       8.334794307431002      5.4134346325667053      10.988010431732777
    63   1      8.7515038803787402      4.0874063936443035      5.1616937516911046
    64   1      8.7814724990876609      5.0440770938543116      6.5316299886669684
    65   1      2.9317149639882114      5.0331437803335151      6.5915025463512302
    66   1      5.8495079119849107   -0.019671669169472321      6.5836571183549264
    67   1  -0.0057513621078241336   -0.036998377167024241      6.5777281907377594
    68   1      5.8540532577597686      6.6851795645792764      6.7380056227992764
    69   1      6.1527572300777047      7.0830923528395759      10.780787585781548
    70   1   0.0050726482191726548      6.5876870562862937      6.9457643450875226
    71   1       8.714797292674378      1.5971433289659858      7.0472645247909638
    72   1      10.814589631598912      2.8797277837324491      3.8043095294545042
    73   1      7.0823394333402181     0.79982271365595581      10.770355404475735
    74   1 -4.3599999999999992e-14      4.3327797862746138      3.8043095294545042
    75   1      4.9854984059152576      9.6065357491926289                     0.5
    76   1      3.7522973639175206       7.925845460602198      3.8043095294545042
    77   1      8.7401321973098778      5.0461176768697538       1.866758950346576
    78   1      3.7079570774214257      2.1465692883911465      8.1649521969560013
    79   1      4.9732446105575825      5.5524160127559883      12.022790552969303
    80   1      9.6232915082176689      2.0787389086871229      8.3495686777681808
    81   1     0.99462135777713367      8.5995482091431086      10.602397022624103
    82   1     0.80453133256948883      7.1154422002203974      8.3217169555402251
    83   1      8.1609323633704207      7.8955185046449339      12.197228418720471
    84   1       6.655526958853879      7.1360032877743125      8.1446857365832379
    85   1  3.1616444207005743e-05      9.1015466588326959      5.2012823695696095
    86   1      5.8267547982065553      4.3327797862746138      3.8043095294545042
    87   1      5.8434124330274564        9.12615816443037      5.1981178871178901
    88   1      7.9012122324956335       7.925845460602198      3.8043095294545042
    89   1      10.635609557017375      5.6788484401712376      11.711498380227297
    90   1      4.9878348333923119      2.8797277837324491      3.8043095294545042
    91   1      3.1506362221465323      4.4192346363585919      12.163158322746501
    92   2      2.9089598977489848       5.042436430182522      5.5620075389785582
    93   2      8.7474106395837339      5.0575651927944643      5.5036448121189858
    94   2      5.8267547982065997                       0     0.84163042435634416
    95   2   -0.028890363584416361      6.6282841499286809      7.9716701005107184
    96   2      8.7466526382751617      1.6164360809985892      8.0772096914926745
    97   2      8.7401321973098778      5.0461176768697538     0.84163042435634416
    98   2      2.9133773991032785      5.0461176768697538     0.84163042435634416
    99   2      5.8447299399436288  -0.0010914745814199107      5.5545458194593413
   100   2       8.740132197309876      8.4101961281162527      3.4593945362622507
   101   2        5.81122727178502      6.6937395555948003      7.7670045752603993
   102   2      2.8702791861254551      1.6694288209766466      7.8017461879840244
   103   2      5.8267547982065553      3.3640784512465056      3.4593945362622507
   104   2 -4.3599999999999992e-14      3.3640784512465056      3.4593945362622507
   105   2   0.0018942428287711337   -0.023089845963931648      5.5478879866521993
   106   2  8.9999999999999983e-16                       0     0.84163042435634416
   107   2      2.9133773991032776      8.4101961281162527      3.4593945362622507
   108   3      10.248125641887356      4.0356777953957232      7.5289518687410855
   109   3      2.9133773991032772      3.0917580036970467      3.3010724808649616
   110   3 -4.3599999999999992e-14      8.1378756805668004      3.3010724808649616
   111   3      5.8267547982065553      8.1378756805668004      3.3010724808649616
   112   3       4.132202971906807      2.3857284981765692      1.3166483637921624
   113   3      9.9589577701134058      2.3857284981765692      1.3166483637921624
   114   3      1.2188255728034858      7.4318461750463234      1.3166483637921624
   115   3      7.0455803710100851      7.4318461750463234      1.3166483637921624
   116   3      4.1650921934026313      9.1298472322057957      7.7974268988510493
   117   3      6.3650779680033844       7.913150112831782      10.284849600716154
   118   3      4.6160146281695624      9.0654912739078046       11.85628157929755
   119   3      2.9337028109235117       7.059146652916227      7.8686731750009127
   120   3      4.6190481256246674       4.194229365043074      7.6123852361422513
   121   3      7.5622502751856233      9.1668289295772603      7.7058538733274995
   122   3      1.7231177272393043      9.1715804891312303      7.7615724711962502
   123   3      7.5209709403539087      7.6878250845841425      5.7793210369851469
   124   3       1.724746031298128      7.6921814276661875      5.8552886107276931
   125   3      8.8376140152735836       7.576797851916055      11.583030895853847
   126   3      6.7881552340039111      2.8204830742187394      10.738322944497275
   127   3      2.2211213271862302      4.9661218944801018      9.9148814278686839
   128   3      11.136213233628595      9.2029532080974725      12.169143235137499
   129   3       4.134229673107142     0.97717983658635332      3.3010724808649616
   130   3       8.740132197309876      3.0917580036970467      3.3010724808649616
   131   3      4.7804899391567783      1.4716579994152179      12.079770018694751
   132   3      2.3890072553880524      9.5310552849365653      10.553085353620109
   133   3      5.8267547982065553      5.3207783573863692      1.3166483637921624
   134   3      9.1840436611108629      5.1104869204006809      11.321832210018874
   135   3      6.0008190317065306      4.7354516024094773      5.7370961075544429
   136   3      11.222636711003483      4.3360019839165611      10.014578717989082
   137   3      8.7729029911877081      7.0403310299730943      7.7820295095515233
   138   3      1.6945518262997477      2.3857284981765683      1.3166483637921624
   139   3       9.950208910666607      7.6491634807200475      5.7554646684912809
   140   3      9.9609844713137417     0.97717983658635332      3.3010724808649616
   141   3      7.0476070722104192      6.0232975134561082      3.3010724808649616
   142   3       10.04094147229932      9.1263451126760877      7.6373259848909765
   143   3      1.1160058383309621      4.0463539237267998      7.6660302415365909
   144   3      7.0605773035973494      4.0555113967582788       7.819119348631709
   145   3      2.9629676827992766       9.793787460553153      5.7847119400941827
   146   3      8.7484948581624185      9.7953133219400979      5.7210594424527779
   147   3      4.6971171720334999      2.6727432008858361      5.7536459551806658
   148   3      10.442617074860465      2.5881851086819356      5.6520028786909471
   149   3      4.6079292254030255      7.4318461750463234      1.3166483637921624
   150   3      1.6925251250994144     0.97717983658635321      3.3010724808649616
   151   3      10.519653805784635      1.7408238965425458      10.535187244040667
   152   3      8.4651157860517792     0.72108123143213232      11.950096145131957
   153   3      1.9861476113474621      5.8446045471330521      12.906679990564371
   154   3      7.0555774746802973      5.3343102492219749      9.9926866938002448
   155   3     0.85641765426042282      1.1309012387627526      12.613485400009097
   156   3      3.1262622451702566      7.1574405557041549       10.74444592137435
   157   3      7.5213066245063471      2.3857284981765683      1.3166483637921624
   158   3      2.3972126219422334      1.9169071737675205      10.559463021655596
   159   3      10.434684023609625      7.4318461750463234      1.3166483637921624
   160   3      5.7580475414118641      2.0049112387416006      7.8210486516074571
   161   3    -0.07618107975136533      1.9450080906573646       7.693986290283009
   162   3      1.2208522740038206      6.0232975134561082      3.3010724808649616
   163   3       7.125445221771594      2.6015817127780956       5.896383143706263
   164   3      1.2242648391778161      2.6145320948856159      5.7864660695627537
   165   3      4.1431490473265526       7.684854829263954      5.8232448396695489
   166   3      4.6059025242026905      6.0232975134561082      3.3010724808649616
   167   3      7.0117123142047149      8.6477664892070809      12.728514386602585
   168   3      1.0400943257580684       3.586187693095948      11.763075471560336
   169   3      9.2982788457172827      9.4024778519578973       10.09899730190986
   170   3      9.1940707617820188       2.959168847296306      12.706015045518695
   171   3   -0.031122702474877251       4.737445778057495      5.6900281657207277
   172   3      4.4795036851367236      3.2361528482273565      10.055999051338102
   173   3      11.413718976206212      6.2572726489888666      11.705409938873826
   174   3      4.1001729363795825      4.3713736704815052      12.304114051218814
   175   3      6.4566752555501328     0.19725001438755257      10.359973898372726
   176   3      5.5398367691187218      6.3335722955130391      11.884820975950715
   177   3      0.4188527740288665      8.1680945881095433       9.978546398637711
   178   3 -4.3599999999999992e-14      5.3207783573863692      1.3166483637921624
   179   3       8.740132197309876      0.2746606805166148      1.3166483637921624
   180   3      2.9133773991032776      0.2746606805166148      1.3166483637921624
   181   3      10.432657322409289      6.0232975134561082      3.3010724808649616
   182   3       7.519279923306013     0.97717983658635321      3.3010724808649616
   183   4   -0.074122720934458972      3.3343526352713946      6.6995511820208602
   184   4      5.8801803750329569      3.3717181907671878      6.8082801072040526
   185   4      2.9133773991032776      1.6820392256232506      2.2987940834959804
   186   4 -4.3599999999999992e-14      6.7281569024930041      2.2987940834959804
   187   4      2.9367189762079686      8.4285113147204207      6.8251093121821853
   188   4      8.7671059401286762      8.4141831192050898      6.7669675194043277
   189   4      5.8267547982065553      6.7281569024930041      2.2987940834959804
   190   4       8.740132197309876      1.6820392256232506      2.2987940834959804
