(written by ASE)

190 atoms
4 atom types

0.0      11.653509596413199  xlo xhi
0.0        10.0922353537395  ylo yhi
0.0                      30  zlo zhi
                      0                       0                       0  xy xz yz

Atoms # atomic

     1   1     0.83779200798272202     0.47842411364992904      5.2154294951050266
     2   1      9.5828563657249006       5.549837261567264      5.1787393891965934
     3   1      10.691116431046472      3.6024469506737726      10.236182045030917
     4   1      3.7482303287973138      5.5349828409056911      5.2204605778361373
     5   1      8.4176134699508243      3.1173626093772753      11.957647482323592
     6   1      6.6794216385917098     0.48226385861697113      5.2219428223802842
     7   1      3.3870701023285545      3.0310717385342762      10.323444590119577
     8   1      2.0271864164354207      2.1235508626471908      8.0837619380279921
     9   1      5.2173432656881591       8.871801606843297      11.102565351787176
    10   1      3.7546337913945762      4.5604180723228787                     0.5
    11   1       4.872980662616448     0.52716929004057722      12.109322510985963
    12   1      6.6680111904978974      9.6065357491926271                     0.5
    13   1      3.2649351941414055       7.692892071372281      10.133906002697371
    14   1      2.9160247498402176      9.1242219832467573      11.296880563696398
    15   1     0.78375836719171288      3.9918385432806027      10.926172887194301
    16   1      5.7459567277865631       5.708191565046473      8.0932067985180414
    17   1    -0.04075917762867548       5.689459480422272      8.3570564437154733
    18   1      1.0886827816040601      6.0678833573854787      12.386722730223836
    19   1      8.7466645097787978     0.66817600749950101      8.4291116978182821
    20   1      9.1424395420194315     0.53079779167942887      11.270708850374707
    21   1       2.830364960937938       0.706688502972455      8.1159899876306767
    22   1      10.744171195782489      1.6066400496528874      11.367008975864456
    23   1      5.8964207297446345      2.6693516079318922      10.891744239566609
    24   1      6.6656747630207986      2.8797277837324504      3.8043095294545042
    25   1     0.83891996481419984      2.8797277837324504      3.8043095294545042
    26   1      9.5790521621241194       7.925845460602198      3.8043095294545042
    27   1 -4.3599999999999992e-14      3.3640784512465056      2.4321633756321481
    28   1      2.9056468698735722      1.6751648159758767      6.7173363371336645
    29   1      2.9059213371546124      4.0737118543063087      5.2286425176836371
    30   1       8.740132197309876      6.0175168859635022                     0.5
    31   1 -4.3599999999999992e-14     0.97139920909375399                     0.5
    32   1      5.8267547982065553     0.97139920909375399                     0.5
    33   1      4.9957598092794209     0.48624383397661464      5.2215689632852671
    34   1      6.8715653861790029       4.367393628910178      10.018848498131964
    35   1      1.1589598825393264      1.6841643603839098      12.045207329006793
    36   1       8.740132197309876      9.3788974631443622      3.8043095294545042
    37   1     0.84125639229129867      9.6065357491926271                     0.5
    38   1      7.9042608565684267      5.5341196433984594       5.196311883868832
    39   1      5.8267547982065553      3.3640784512465056      2.4321633756321481
    40   1       8.988434484710675      8.7272624828400627      10.685697336892279
    41   1       8.740132197309876      8.4101961281162527      2.4321633756321481
    42   1      2.9133773991032776      8.4101961281162527      2.4321633756321481
    43   1      9.5813885896011737      4.5604180723228787                     0.5
    44   1      2.9133773991032776      9.3788974631443622      3.8043095294545042
    45   1       2.525368763870953      5.8683014482706133      10.307141754291278
    46   1       7.917173546231119      2.1505108624907554      8.3937739695557099
    47   1      10.792582771293189      8.7310919498665314      11.313310206757047
    48   1      4.9671247670711329      7.1860390085491161      8.0739098890322651
    49   1      6.9500352718815339       9.151775238107529      11.733650365448463
    50   1      10.805344580016063      7.1713960460449444      8.2889151939382373
    51   1      2.9567747511229521      1.1530203224388145      10.897999550467283
    52   1      2.0744574342890343       7.925845460602198      3.8043095294545042
    53   1      2.9133773991032785      5.0461176768697538       1.866758950346576
    54   1      5.8267547982065997                       0       1.866758950346576
    55   1  8.9999999999999983e-16                       0       1.866758950346576
    56   1      7.8988758050185357      4.5604180723228804                     0.5
    57   1      2.0721210068119365      4.5604180723228804                     0.5
    58   1      10.812253204121857      9.6065357491926289                     0.5
    59   1      2.9133773991032776      6.0175168859635022                     0.5
    60   1      10.821504906460515     0.47974567897089071      5.2260948639359732
    61   1      2.0667131446728235      5.5241874741755712      5.2278079434848106
    62   1      8.3629589977219254      5.5062182738386882      10.991841173293603
    63   1      8.7408002224077403      4.0824989913074274      5.1872651145327264
    64   1      8.7727825941096942      5.0432605978513303      6.5549536842122613
    65   1      2.9196883225945061       5.040461612389497      6.5974712814023686
    66   1      5.8415274377080104   -0.013548770096311209      6.5890131609620166
    67   1  -0.0046346391562118805   -0.024702205962546193      6.5906139948046958
    68   1      5.8225215185803378      6.6757588881713827      6.7311363802111348
    69   1      6.2001650850205223      7.0878184218896907      10.704760749287971
    70   1    0.010132438127118767      6.6252915436836082      6.9657779749942597
    71   1      8.7336983714217205      1.6262948977176244      7.0486442597762924
    72   1      10.814589631598912      2.8797277837324491      3.8043095294545042
    73   1      7.0242390324258048     0.82800222050759509      10.824793783856173
    74   1 -4.3599999999999992e-14      4.3327797862746138      3.8043095294545042
    75   1      4.9854984059152576      9.6065357491926289                     0.5
    76   1      3.7522973639175206       7.925845460602198      3.8043095294545042
    77   1      8.7401321973098778      5.0461176768697538       1.866758950346576
    78   1      3.6975667720111653      2.1334558533888055      8.1697617971946972
    79   1      4.8784429475757092      5.5953280681837647      11.716537095666196
    80   1       9.618166340125585      2.1049595395626159      8.3800297392778305
    81   1      1.0056765902985685      8.4251031468345303      10.700427062374482
    82   1     0.81798048134607926       7.133452985757752      8.3584827473134027
    83   1      8.0329508440200534       7.695551568544472      12.049116186938576
    84   1      6.6430573306999392      7.1467122376594538      8.1220444938392973
    85   1  -0.0021567562295145542      9.1052323101368735      5.2176297333874881
    86   1      5.8267547982065553      4.3327797862746138      3.8043095294545042
    87   1      5.8316448794494402      9.1234900584570457      5.2086936506629478
    88   1      7.9012122324956335       7.925845460602198      3.8043095294545042
    89   1      10.710739377347091      5.6928646087857553      11.583373564257727
    90   1      4.9878348333923119      2.8797277837324491      3.8043095294545042
    91   1      3.3960334946205943      4.4831551296720482      11.925187563684439
    92   2      2.9123885698713541      5.0450892585486198      5.5680191984459402
    93   2      8.7500999445696621      5.0542275942216026      5.5260319162389946
    94   2      5.8267547982065997                       0     0.84163042435634416
    95   2   -0.012258260093474771      6.6517177218222416      7.9923769581823558
    96   2      8.7512397933654267      1.6387530221220981       8.079018088880936
    97   2      8.7401321973098778      5.0461176768697538     0.84163042435634416
    98   2      2.9133773991032785      5.0461176768697538     0.84163042435634416
    99   2       5.835959287107336  -0.0015193302367027199      5.5597018460996814
   100   2       8.740132197309876      8.4101961281162527      3.4593945362622507
   101   2      5.8016188987631487      6.6791017282813963      7.7611164412274025
   102   2      2.8802691603881785      1.6647278624180584      7.7502629033588706
   103   2      5.8267547982065553      3.3640784512465056      3.4593945362622507
   104   2 -4.3599999999999992e-14      3.3640784512465056      3.4593945362622507
   105   2   0.0055979520629398025   -0.016830717970346163      5.5605180667639802
   106   2  8.9999999999999983e-16                       0     0.84163042435634416
   107   2      2.9133773991032776      8.4101961281162527      3.4593945362622507
   108   3      10.304818656517496      4.0271301864520046      7.5096661331566779
   109   3      2.9133773991032772      3.0917580036970467      3.3010724808649616
   110   3 -4.3599999999999992e-14      8.1378756805668004      3.3010724808649616
   111   3      5.8267547982065553      8.1378756805668004      3.3010724808649616
   112   3       4.132202971906807      2.3857284981765692      1.3166483637921624
   113   3      9.9589577701134058      2.3857284981765692      1.3166483637921624
   114   3      1.2188255728034858      7.4318461750463234      1.3166483637921624
   115   3      7.0455803710100851      7.4318461750463234      1.3166483637921624
   116   3      4.1498828341110698      9.1016321812425005      7.8470503815101678
   117   3      6.5637253119579011      7.7741384584747335      10.143848770571337
   118   3      4.5726248872835127      9.1491676858878357      11.780101330978676
   119   3      2.9569151328085885      7.0277141890795312       7.869565317052742
   120   3      4.6484568736387759      4.2102816573353001      7.6746237125282688
   121   3      7.5501522910825294      9.1319250162837093      7.7563694119853803
   122   3      1.7316032953154454      9.1594450066143125      7.7725248349919926
   123   3      7.5385665249166562      7.6811626581118535      5.8199918290383268
   124   3       1.716223999838117      7.6863331717312562      5.8596207669776161
   125   3      8.9297866537332222      7.5148569130968852      11.690140354467996
   126   3      6.7858274455089118      2.9279364997839088      10.611896823051435
   127   3      2.3444097528841947      5.0321559241141331      9.8857853758634633
   128   3      11.161521629767261      9.1723671367468231      12.066767455133295
   129   3       4.134229673107142     0.97717983658635332      3.3010724808649616
   130   3       8.740132197309876      3.0917580036970467      3.3010724808649616
   131   3      4.7135299889462505      1.4880188642213605      12.064626562796947
   132   3      2.5863132804160145      9.5806630700274482      10.518848845411195
   133   3      5.8267547982065553      5.3207783573863692      1.3166483637921624
   134   3      9.1476083852514449      5.0792694558088964      11.416822912769797
   135   3      5.9858074673901616      4.7515710088134311      5.7887796357118617
   136   3      11.091765164708219      4.3705202045912497      9.8555108300046559
   137   3      8.7420675507410142      7.0533372089213726      7.8492461462280749
   138   3      1.6945518262997477      2.3857284981765683      1.3166483637921624
   139   3      9.9413065013909598      7.6417604049433914      5.7872720665359685
   140   3      9.9609844713137417     0.97717983658635332      3.3010724808649616
   141   3      7.0476070722104192      6.0232975134561082      3.3010724808649616
   142   3      10.029416587845109      9.1192889742861283      7.6682669954800371
   143   3      1.0780936105027126      4.0927316815396697       7.743701250461303
   144   3      7.0462800972971342      4.0745905662829474      7.8973052527126937
   145   3      2.9758661943504747      9.8078985260546201      5.7961275683808129
   146   3      8.7339855427747644      9.8137870574008019      5.7674257967810494
   147   3      4.6732430311733513       2.655173568710246      5.8187413323895214
   148   3      10.480391558005621      2.5755922882047524      5.6370224346320841
   149   3      4.6079292254030255      7.4318461750463234      1.3166483637921624
   150   3      1.6925251250994144     0.97717983658635321      3.3010724808649616
   151   3      10.611331603495634      1.7316127602127116      10.433501418937338
   152   3      8.5842382288572239     0.58947960758587103        12.0554546479683
   153   3      1.9669564639864134      5.8513887303662733      12.752981112981875
   154   3       7.048222152774918      5.3038533944785025      10.221966407024651
   155   3      0.8253235317284684      1.0008792920768226      12.620919110830911
   156   3      3.0709730761142247      7.1104261924435788      10.869569998208458
   157   3      7.5213066245063471      2.3857284981765683      1.3166483637921624
   158   3      2.4118340686682194      1.8523796770231182      10.519393353882785
   159   3      10.434684023609625      7.4318461750463234      1.3166483637921624
   160   3      5.7771776678508902      2.0283883478255254      7.8629227226166103
   161   3    -0.12974642971291317      1.9655267962179754      7.7509059963735583
   162   3      1.2208522740038206      6.0232975134561082      3.3010724808649616
   163   3      7.1321358160140464       2.634089651608889      5.9279110549429035
   164   3      1.2583746748004172      2.6260703207139722      5.8156803126334795
   165   3      4.1453956284532039      7.7013605972509138      5.8584664314269839
   166   3      4.6059025242026905      6.0232975134561082      3.3010724808649616
   167   3      7.1426567929179514      8.9042571184229438      12.638721070501767
   168   3      1.1969507520258902      3.4312847846272021      11.578284277721245
   169   3      9.1957393071522588      9.4787738635265626      10.079426320730441
   170   3      9.1498181519469615      2.8960930128813582       12.51724840071215
   171   3    0.017888059305706264      4.7385129766482894      5.6681011371365759
   172   3      4.2869646916255659      3.1598082903477032      9.9769270368682523
   173   3      11.456797716103583      6.3053427384358312      11.577518819548182
   174   3        4.06576455620724      4.1165911845155136      12.488271097006031
   175   3       6.448366479804057     0.29168350288548661      10.272338157749241
   176   3      5.4027313086616475      6.3881434498985152      11.909333135623092
   177   3     0.36242666396665107      8.1113168409147161      10.070441285611301
   178   3 -4.3599999999999992e-14      5.3207783573863692      1.3166483637921624
   179   3       8.740132197309876      0.2746606805166148      1.3166483637921624
   180   3      2.9133773991032776      0.2746606805166148      1.3166483637921624
   181   3      10.432657322409289      6.0232975134561082      3.3010724808649616
   182   3       7.519279923306013     0.97717983658635321      3.3010724808649616
   183   4    -0.03418579614404154      3.3352137066558498      6.7113739670796821
   184   4      5.8746643514186454      3.3804328189167729      6.8424054811685124
   185   4      2.9133773991032776      1.6820392256232506      2.2987940834959804
   186   4 -4.3599999999999992e-14      6.7281569024930041      2.2987940834959804
   187   4      2.9321635088183555      8.4192090834716975      6.8417170585291975
   188   4      8.7615747498700305      8.4098095064350229      6.8031540258272853
   189   4      5.8267547982065553      6.7281569024930041      2.2987940834959804
   190   4       8.740132197309876      1.6820392256232506      2.2987940834959804
