(written by ASE)

190 atoms
4 atom types

0.0      11.653509596413199  xlo xhi
0.0        10.0922353537395  ylo yhi
0.0                      30  zlo zhi
                      0                       0                       0  xy xz yz

Atoms # atomic

     1   1     0.84134662414725159     0.48682817309603454      5.2243521400470323
     2   1      9.5864525099880229      5.5315822617336297      5.2199338998880584
     3   1       10.53440483507946      3.4639322874350738        10.2993244263221
     4   1      3.7512234156293203      5.5323575248311219      5.2217946763043059
     5   1      8.2805458593716796      3.0066018201097338      11.671000627535834
     6   1      6.6704626250808721     0.48202003986055153      5.2181520494411595
     7   1      3.0442256593850261      2.9861132216356205      10.320683034128553
     8   1      2.0930903869273099      2.1411718059149334      8.2486232516265314
     9   1      5.0314191019646115       8.991149551503927      10.886193597827717
    10   1      3.7546337913945762      4.5604180723228787                     0.5
    11   1      4.9787746875578316     0.71711166839861362      11.896736232756476
    12   1      6.6680111904978974      9.6065357491926271                     0.5
    13   1      3.7001430266546773      7.6383463061429175      10.374542063655369
    14   1      2.9362647790134786      9.0297944535187007       11.49825305813973
    15   1     0.90444959059121455       3.918681331940876      10.889368172243696
    16   1      5.7876729739478741      5.7182185855972341      8.1945171226176914
    17   1  -0.0093649459698335689      5.7457543044312018      8.4003184138688312
    18   1      1.0155548672739485      6.0378294197406728      11.783864095557981
    19   1      8.7434686958072927     0.68674534119280628      8.4180672348043935
    20   1      8.9656014275205269     0.82273792711485461      11.093338890582318
    21   1      2.8656506513055304     0.71211542554749985      8.2533390214633489
    22   1      10.637802549859924      1.7318670945075731      11.292951701216277
    23   1        5.92379877070681      2.7526762621792336      10.682515942395863
    24   1      6.6656747630207986      2.8797277837324504      3.8043095294545042
    25   1     0.83891996481419984      2.8797277837324504      3.8043095294545042
    26   1      9.5790521621241194       7.925845460602198      3.8043095294545042
    27   1 -4.3599999999999992e-14      3.3640784512465056      2.4321633756321481
    28   1      2.9110047458267374      1.6854511929283738      6.8253471926245508
    29   1      2.9099176807665841      4.0738202892117554      5.2239306354474442
    30   1       8.740132197309876      6.0175168859635022                     0.5
    31   1 -4.3599999999999992e-14     0.97139920909375399                     0.5
    32   1      5.8267547982065553     0.97139920909375399                     0.5
    33   1      4.9824940252062424      0.4848565927369734      5.2208648317391413
    34   1      6.8235434881282044      4.5465770492458129      10.219402673126252
    35   1      1.1438830283168786      1.6896288046999539       11.82166645030075
    36   1       8.740132197309876      9.3788974631443622      3.8043095294545042
    37   1     0.84125639229129867      9.6065357491926271                     0.5
    38   1       7.900683793976274      5.5337438929555578      5.2158647648440821
    39   1      5.8267547982065553      3.3640784512465056      2.4321633756321481
    40   1      8.8975780427366864      9.0822333595997282      10.896972145591697
    41   1       8.740132197309876      8.4101961281162527      2.4321633756321481
    42   1      2.9133773991032776      8.4101961281162527      2.4321633756321481
    43   1      9.5813885896011737      4.5604180723228787                     0.5
    44   1      2.9133773991032776      9.3788974631443622      3.8043095294545042
    45   1      2.7768560544923888      5.9046671795723622      10.563407061706075
    46   1      7.9030130592974031       2.161130510410425      8.3986731692375596
    47   1      10.856006803505139      8.5815450052942825      11.067397562633021
    48   1      4.9975193106553686      7.1860517858880293      8.2076287820578937
    49   1      7.1017004610119931      9.1364953740472288      11.202757354278226
    50   1      10.814378490030119      7.2296243019286965      8.3637088425832768
    51   1      3.3392192586336673      1.1426535612421531      10.650404476113559
    52   1      2.0744574342890343       7.925845460602198      3.8043095294545042
    53   1      2.9133773991032785      5.0461176768697538       1.866758950346576
    54   1      5.8267547982065997                       0       1.866758950346576
    55   1  8.9999999999999983e-16                       0       1.866758950346576
    56   1      7.8988758050185357      4.5604180723228804                     0.5
    57   1      2.0721210068119365      4.5604180723228804                     0.5
    58   1      10.812253204121857      9.6065357491926289                     0.5
    59   1      2.9133773991032776      6.0175168859635022                     0.5
    60   1      10.813268875450738      0.4896744862423893      5.2239576833064447
    61   1      2.0679624739160776       5.531643703616437      5.2249800221696212
    62   1      8.7650953944601344      5.4465964449212558      10.880049342446021
    63   1      8.7491816953441059      4.0733044456085805      5.2191573511498692
    64   1      8.7591467496473374      5.0438751113708156      6.5811903081429026
    65   1       2.905403688586532      5.0478079985320399       6.593220028082504
    66   1      5.8292400094902757  -0.0051207854756820034      6.5890072585969781
    67   1  -0.0011446237476849734   -0.000743423608425168      6.5914509853575938
    68   1      5.8078732232166255      6.6795027903746584      6.8011492359484906
    69   1      6.3254870086599748      6.7925250237362267      10.625154636369912
    70   1    0.019532055784736501      6.7084249324465954        7.03546372604489
    71   1      8.7551830298372462      1.6783102719196408      7.0559546293401221
    72   1      10.814589631598912      2.8797277837324491      3.8043095294545042
    73   1      7.0367311195166202     0.96454731727295606      11.147713778080535
    74   1 -4.3599999999999992e-14      4.3327797862746138      3.8043095294545042
    75   1      4.9854984059152576      9.6065357491926289                     0.5
    76   1      3.7522973639175206       7.925845460602198      3.8043095294545042
    77   1      8.7401321973098778      5.0461176768697538       1.866758950346576
    78   1      3.6860782407836425      2.1577254521212001       8.273341969413881
    79   1      4.9058869355012114      5.6779852069027026      11.097970646393733
    80   1      9.6013635606839767      2.1537590865680376      8.3974489539580315
    81   1     0.79586404353588858      8.2692956331468164      10.885490715706142
    82   1     0.82369379332213399      7.2040496980390349      8.4401937334518049
    83   1      7.9147921082370489      7.4052867439590262      11.718139375549301
    84   1      6.6264363534857837      7.1628231174993733       8.213771613715096
    85   1   0.0016903782916210324      9.1202282782291295      5.2223392079708013
    86   1      5.8267547982065553      4.3327797862746138      3.8043095294545042
    87   1      5.8275939966513803      9.1229463274459697      5.2194275638567929
    88   1      7.9012122324956335       7.925845460602198      3.8043095294545042
    89   1      10.565660940487938      5.9887131587614135      11.023013941509989
    90   1      4.9878348333923119      2.8797277837324491      3.8043095294545042
    91   1      3.7944771639246646      4.4623471015825977      11.751559819389236
    92   2      2.9113407631259496      5.0457297620877295      5.5638322260892368
    93   2      8.7410328921200406      5.0475353374123397      5.5526771791956921
    94   2      5.8267547982065997                       0     0.84163042435634416
    95   2  0.00084369499990418265      6.7159251864164453      8.0598745874737716
    96   2      8.7494565815760854      1.6667589760615276       8.086761644099413
    97   2      8.7401321973098778      5.0461176768697538     0.84163042435634416
    98   2      2.9133773991032785      5.0461176768697538     0.84163042435634416
    99   2      5.8261204784236824   0.0019040599821903519      5.5598051510711759
   100   2       8.740132197309876      8.4101961281162527      3.4593945362622507
   101   2      5.8035916768259064      6.6783798701940915      7.8356630045789819
   102   2      2.8988223041916021      1.6557089950592649      7.8475000914243722
   103   2      5.8267547982065553      3.3640784512465056      3.4593945362622507
   104   2 -4.3599999999999992e-14      3.3640784512465056      3.4593945362622507
   105   2  0.00069764942465048291 -0.00047946686174145012      5.5615223542456924
   106   2  8.9999999999999983e-16                       0     0.84163042435634416
   107   2      2.9133773991032776      8.4101961281162527      3.4593945362622507
   108   3      10.293893383062169      4.0863956111564326      7.5201473977342053
   109   3      2.9133773991032772      3.0917580036970467      3.3010724808649616
   110   3 -4.3599999999999992e-14      8.1378756805668004      3.3010724808649616
   111   3      5.8267547982065553      8.1378756805668004      3.3010724808649616
   112   3       4.132202971906807      2.3857284981765692      1.3166483637921624
   113   3      9.9589577701134058      2.3857284981765692      1.3166483637921624
   114   3      1.2188255728034858      7.4318461750463234      1.3166483637921624
   115   3      7.0455803710100851      7.4318461750463234      1.3166483637921624
   116   3      4.1568094382901863      9.0855554721723912      7.9264788925032983
   117   3      6.5520406457530642      7.5872098238274877      10.094484485529554
   118   3      4.8685609538630681      9.3371037646870985       11.74407570168295
   119   3       2.944571112039025      7.0210162477633133      7.9119800862590957
   120   3      4.6602665104436953      4.1376651322904765      7.8414972085461443
   121   3      7.5034535002362901      9.1138778359425281      7.8508888843317326
   122   3      1.6929106103541878      9.1247383855080013      7.8399202708905467
   123   3      7.5282748314504584      7.6927624551991736      5.8996720616637734
   124   3      1.7102327232818824       7.679453877242433      5.9113208564917281
   125   3      8.8341724155945904      7.4737760148165835       11.87899039045509
   126   3      6.8639117178383557      2.8571924227585104      10.731587841085551
   127   3      2.7083128145308129      5.2401688679301106      9.8550185163288937
   128   3      10.927136443799409      8.9597369872949955      11.934784661513108
   129   3       4.134229673107142     0.97717983658635332      3.3010724808649616
   130   3       8.740132197309876      3.0917580036970467      3.3010724808649616
   131   3      4.5649198694253776      1.5323274669759281      12.150648443990292
   132   3      2.8218068031557979      9.1552431251419115      10.572497204082843
   133   3      5.8267547982065553      5.3207783573863692      1.3166483637921624
   134   3      9.1786019912580521      5.1872455604599335      11.682182085945442
   135   3       5.866180513683636      4.7649829909285435      5.8900805002493559
   136   3      10.812885383850359      4.2697869210583077      9.8527416048570036
   137   3      8.7387458381654763      7.0070966511127981      7.9139295118322321
   138   3      1.6945518262997477      2.3857284981765683      1.3166483637921624
   139   3       9.944631230930046      7.6860701540470542      5.9040401386262786
   140   3      9.9609844713137417     0.97717983658635332      3.3010724808649616
   141   3      7.0476070722104192      6.0232975134561082      3.3010724808649616
   142   3      9.9963785501519471      9.1047415411854953      7.8204486708675107
   143   3      1.1678672324813946      4.0520471042633401      7.8701457718746468
   144   3      7.0406692831325772       4.084506214621924      7.9740582610091097
   145   3      2.9470382902031855      9.8041696221821333       5.902675795419877
   146   3      8.7286016605558263      9.8171576543834309       5.901736684222346
   147   3      4.6182063122526191      2.6629566765370396      5.9083501875675637
   148   3      10.457329804122336      2.5798468661363847      5.8111581903329954
   149   3      4.6079292254030255      7.4318461750463234      1.3166483637921624
   150   3      1.6925251250994144     0.97717983658635321      3.3010724808649616
   151   3      10.842130647482193      2.0527483257745773      10.433108880156132
   152   3      8.7369232722703352     0.70180324962237028      12.006476199821002
   153   3      1.7595296696490026      6.1357571258178858      12.391927089150069
   154   3      6.7774865301799361      5.3177350571259749      10.766896280699063
   155   3     0.87108765176734282     0.97423857658536694      12.393768755621142
   156   3      3.1498403601756628      7.0895185512638212      10.903050347755427
   157   3      7.5213066245063471      2.3857284981765683      1.3166483637921624
   158   3      2.4905900493801156      1.1955045453259201      10.233005584920173
   159   3      10.434684023609625      7.4318461750463234      1.3166483637921624
   160   3       5.826268666889054      1.9852407732937287      7.9171702436930387
   161   3  -0.0024056034313775961      1.9715745398712636      7.8667929167272952
   162   3      1.2208522740038206      6.0232975134561082      3.3010724808649616
   163   3      7.0573138313671953        2.67768155303607      5.9454185900237064
   164   3       1.237464470776267      2.6479372053009147      5.8620031132287362
   165   3      4.1333749990937232      7.7068929536197563       5.906128828896513
   166   3      4.6059025242026905      6.0232975134561082      3.3010724808649616
   167   3      7.1443062933918213      8.8950418247106988       12.13388251531776
   168   3      1.0586665327449096      3.3623978785731956      11.635269866248585
   169   3      9.0309641947106076      9.3076354351407016      9.9696719924433257
   170   3      9.0941405811955889      2.9563583593065128      12.150387371036171
   171   3    0.062356552855684422        4.78264090894264       5.830545062478679
   172   3       3.775094414276857      3.2162435627656665      9.7660048172766327
   173   3      11.247264621148874      5.9726015433768165      11.693681053950991
   174   3      4.1704655955623435      3.8314276205152673      12.331796368821712
   175   3      6.6035768567642439     0.55624116499059684      10.388712074723079
   176   3      5.0372101875700537      6.3796434446460761      11.723973855567838
   177   3     0.60041519585905967      8.0877343052517023      9.9802096799653714
   178   3 -4.3599999999999992e-14      5.3207783573863692      1.3166483637921624
   179   3       8.740132197309876      0.2746606805166148      1.3166483637921624
   180   3      2.9133773991032776      0.2746606805166148      1.3166483637921624
   181   3      10.432657322409289      6.0232975134561082      3.3010724808649616
   182   3       7.519279923306013     0.97717983658635321      3.3010724808649616
   183   4   0.0060916757052423979       3.347841762262318      6.8336224898464994
   184   4      5.8403918890822721      3.3755792668980842      6.9272946034558114
   185   4      2.9133773991032776      1.6820392256232506      2.2987940834959804
   186   4 -4.3599999999999992e-14      6.7281569024930041      2.2987940834959804
   187   4      2.9243506070356022      8.4021458415810333      6.9280001468786647
   188   4      8.7394161372005872      8.4013228068680093      6.9209888894927634
   189   4      5.8267547982065553      6.7281569024930041      2.2987940834959804
   190   4       8.740132197309876      1.6820392256232506      2.2987940834959804
