(written by ASE)

190 atoms
4 atom types

0.0      11.653509596413199  xlo xhi
0.0        10.0922353537395  ylo yhi
0.0                      30  zlo zhi
                      0                       0                       0  xy xz yz

Atoms # atomic

     1   1     0.84352364805272706     0.46200003021974595      5.2106221678767417
     2   1       9.583036233938488      5.5436399498499052      5.1584880156796533
     3   1      10.701463189618947      3.5744334650019773      10.186452505724388
     4   1      3.7438187280209716      5.5288203410621346      5.2111679851365977
     5   1      8.4820336869361892      3.1383408692344612      12.058555215902926
     6   1       6.687762300770701     0.48096001707844299       5.219883585321254
     7   1       3.561056738321374      2.9707926199760801      10.321551167985751
     8   1      2.0240823201251894        2.16104270055712      8.0719419852201373
     9   1      5.2348452972142452        8.84595180836825      11.160444434291582
    10   1      3.7546337913945762      4.5604180723228787                     0.5
    11   1      4.8306532266258104     0.47950701459832024      12.122015512788352
    12   1      6.6680111904978974      9.6065357491926271                     0.5
    13   1      3.1260093207996666      7.6790538952424727      10.000053908012662
    14   1      2.9465426160186134      9.2234905363689563      11.244255292160361
    15   1     0.79022603892044241      4.0121167777159208      10.909147511798029
    16   1      5.7478349491937104      5.7242385531232909      8.1027321458330448
    17   1   -0.049732041369715985      5.6718868943838752      8.3331962945896549
    18   1      1.1095426586980823      6.0062277439976191      12.529843463402278
    19   1      8.7353240683570696     0.64865056205013438      8.4333300204048811
    20   1      9.1500948126987502     0.38117025511584612      11.347339566588936
    21   1      2.8279108555026555     0.68008729957406822      8.0873950294256165
    22   1      10.833721636089228      1.5648857417270809      11.388972906629229
    23   1      5.8421058843684497      2.7013014139313487        10.8835220333356
    24   1      6.6656747630207986      2.8797277837324504      3.8043095294545042
    25   1     0.83891996481419984      2.8797277837324504      3.8043095294545042
    26   1      9.5790521621241194       7.925845460602198      3.8043095294545042
    27   1 -4.3599999999999992e-14      3.3640784512465056      2.4321633756321481
    28   1      2.9192109768441337      1.6782205728222899      6.7327911844957491
    29   1      2.9131444863430751      4.0732791632092464      5.2206064049219592
    30   1       8.740132197309876      6.0175168859635022                     0.5
    31   1 -4.3599999999999992e-14     0.97139920909375399                     0.5
    32   1      5.8267547982065553     0.97139920909375399                     0.5
    33   1      5.0028196771292341     0.48947932987784615      5.2210189446405941
    34   1      6.8944511384716893       4.378917755473215      10.039902129655358
    35   1      1.1999249824523266      1.7938082812434795      12.102348162448669
    36   1       8.740132197309876      9.3788974631443622      3.8043095294545042
    37   1     0.84125639229129867      9.6065357491926271                     0.5
    38   1      7.8999367753899401      5.5369736317851119      5.1937639402628655
    39   1      5.8267547982065553      3.3640784512465056      2.4321633756321481
    40   1      9.0129893065890787      8.6374042583576074      10.604763399592244
    41   1       8.740132197309876      8.4101961281162527      2.4321633756321481
    42   1      2.9133773991032776      8.4101961281162527      2.4321633756321481
    43   1      9.5813885896011737      4.5604180723228787                     0.5
    44   1      2.9133773991032776      9.3788974631443622      3.8043095294545042
    45   1      2.4611736910338116      5.8624487574484645      10.259148046553598
    46   1      7.9234562826899806      2.1460814493858349      8.3972526750604732
    47   1      10.854606464188331      8.7414139114884382      11.393733495637662
    48   1        4.99371177866227      7.2094359448815277       8.075911785940006
    49   1      6.9289610203826406      9.2100020153168103      11.925421914416978
    50   1      10.787674550442006      7.1481590746423311      8.2674889113417773
    51   1      2.8546816401212647      1.1685571693468477      10.904182413003507
    52   1      2.0744574342890343       7.925845460602198      3.8043095294545042
    53   1      2.9133773991032785      5.0461176768697538       1.866758950346576
    54   1      5.8267547982065997                       0       1.866758950346576
    55   1  8.9999999999999983e-16                       0       1.866758950346576
    56   1      7.8988758050185357      4.5604180723228804                     0.5
    57   1      2.0721210068119365      4.5604180723228804                     0.5
    58   1      10.812253204121857      9.6065357491926289                     0.5
    59   1      2.9133773991032776      6.0175168859635022                     0.5
    60   1      10.812974707380633      0.4712467997394556      5.2206593504016929
    61   1      2.0647203385412691      5.5248203434638707      5.2278836708780139
    62   1       8.324548187940394      5.4349888797898727      11.014129644289035
    63   1       8.749868513689913      4.0868891132434912      5.1665026828906058
    64   1      8.7781575118410764      5.0457041814952914      6.5379859253093278
    65   1      2.9288705579894607       5.035806548183456      6.5955969356187651
    66   1       5.846997339669036   -0.018752869707041969      6.5857200967556384
    67   1  -0.0049946681892077916   -0.034531525015230748       6.582225529342832
    68   1      5.8489003594778408      6.6809686236640999      6.7017771533239419
    69   1      6.1693709575894475      7.1173579629852233      10.770980561438053
    70   1   0.0039462935475236922      6.5891562131202814      6.9527781655782137
    71   1      8.7213671731409832      1.6062730953454074      7.0476431942133599
    72   1      10.814589631598912      2.8797277837324491      3.8043095294545042
    73   1      7.0558040892831011     0.78939809790209048      10.750145918029466
    74   1 -4.3599999999999992e-14      4.3327797862746138      3.8043095294545042
    75   1      4.9854984059152576      9.6065357491926289                     0.5
    76   1      3.7522973639175206       7.925845460602198      3.8043095294545042
    77   1      8.7401321973098778      5.0461176768697538       1.866758950346576
    78   1      3.6904156983539167      2.1470488942225323      8.1668439676062299
    79   1      4.9549487757427428      5.5628790922315519       11.97619646516328
    80   1      9.6219718088187811      2.0873329996910774       8.356061140656319
    81   1     0.99958246977531062      8.5450926813572821      10.611637227521145
    82   1     0.81375638672405792      7.1191610762233735      8.3317397966271294
    83   1      8.1071870590792692      7.8521817922201169      12.195262584936089
    84   1      6.6296405279416222      7.1354908672730444      8.1383817645770673
    85   1    0.001281363935285288      9.1033267354825025      5.2068874042642115
    86   1      5.8267547982065553      4.3327797862746138      3.8043095294545042
    87   1      5.8401796718665562      9.1263004150433158      5.2018141325458815
    88   1      7.9012122324956335       7.925845460602198      3.8043095294545042
    89   1      10.697931917974346      5.6650496695995178      11.728468312134851
    90   1      4.9878348333923119      2.8797277837324491      3.8043095294545042
    91   1      3.1678838636987456      4.4194897811851019      12.095434437807841
    92   2      2.9096934134956176      5.0429917356323584      5.5654663015195505
    93   2      8.7492189601335184      5.0562297692495797      5.5098645131148709
    94   2      5.8267547982065997                       0     0.84163042435634416
    95   2   -0.021147818248573081      6.6352555294954252      7.9772968720504105
    96   2       8.749265084857063      1.6200666517430824      8.0776454053105997
    97   2      8.7401321973098778      5.0461176768697538     0.84163042435634416
    98   2      2.9133773991032785      5.0461176768697538     0.84163042435634416
    99   2      5.8423868946769151 -0.00055770025468312458      5.5563211883611565
   100   2       8.740132197309876      8.4101961281162527      3.4593945362622507
   101   2      5.8035513895426369      6.6829228301242685      7.7396731939250785
   102   2      2.8720152385206403      1.6619328788291066      7.7693261839982117
   103   2      5.8267547982065553      3.3640784512465056      3.4593945362622507
   104   2 -4.3599999999999992e-14      3.3640784512465056      3.4593945362622507
   105   2   0.0026154848287905054   -0.020903601365926436      5.5520738421784754
   106   2  8.9999999999999983e-16                       0     0.84163042435634416
   107   2      2.9133773991032776      8.4101961281162527      3.4593945362622507
   108   3      10.251340738277291      4.0359148316081415      7.4789307938301377
   109   3      2.9133773991032772      3.0917580036970467      3.3010724808649616
   110   3 -4.3599999999999992e-14      8.1378756805668004      3.3010724808649616
   111   3      5.8267547982065553      8.1378756805668004      3.3010724808649616
   112   3       4.132202971906807      2.3857284981765692      1.3166483637921624
   113   3      9.9589577701134058      2.3857284981765692      1.3166483637921624
   114   3      1.2188255728034858      7.4318461750463234      1.3166483637921624
   115   3      7.0455803710100851      7.4318461750463234      1.3166483637921624
   116   3      4.1684459953433528      9.1245403322252834      7.8090427457964537
   117   3      6.4437971595136183      7.8871086345309624      10.232054374946975
   118   3      4.6123268806399285      9.1049521906415389       11.83522872198899
   119   3      2.9408000609804126      7.0468707440919927      7.8657565274891281
   120   3      4.6300161672611493       4.206616472240202      7.6195919583411227
   121   3      7.5612605957349741      9.1626530305010743      7.7138019015418156
   122   3      1.7192345734746408      9.1665887787657603      7.7596240975511312
   123   3      7.5244360532898318      7.6851043071918177      5.7815944133659665
   124   3      1.7323704416370838      7.7010169104977155      5.8582367458173099
   125   3      8.8640904736209229      7.5744525869672579      11.584992249338525
   126   3      6.7941567138541759      2.8364487834768819      10.686043060311071
   127   3      2.2500824760318547       4.986553841920065      9.8930224712327171
   128   3      11.168123074358467      9.2191608269068883      12.148593797404406
   129   3       4.134229673107142     0.97717983658635332      3.3010724808649616
   130   3       8.740132197309876      3.0917580036970467      3.3010724808649616
   131   3      4.7741048237781039      1.4620403200131309      12.077876443613674
   132   3      2.4211978622035257      9.5692414000987576      10.530876973575667
   133   3      5.8267547982065553      5.3207783573863692      1.3166483637921624
   134   3      9.1818613378366969      5.1289802689969131      11.329216091977056
   135   3      6.0067379875059599       4.735371867612943      5.7435479327427945
   136   3      11.223968117066715      4.3503909574182904      9.9591122860468939
   137   3      8.7674962786534678      7.0442632022212663      7.7985666702246057
   138   3      1.6945518262997477      2.3857284981765683      1.3166483637921624
   139   3      9.9446844845068743      7.6454539601282709       5.761019780679038
   140   3      9.9609844713137417     0.97717983658635332      3.3010724808649616
   141   3      7.0476070722104192      6.0232975134561082      3.3010724808649616
   142   3      10.041420507417095      9.1252272771029563        7.63787415039896
   143   3      1.1230873989162311      4.0697930000344122      7.6814825981200885
   144   3       7.059542176580238      4.0701407775451903      7.8473964330738948
   145   3      2.9675112522632676      9.7865760779002695      5.7811759408294341
   146   3      8.7427647825477859      9.7934851369594256      5.7274232162026166
   147   3       4.703717918116908      2.6711776142613481      5.7643918432714765
   148   3      10.443193090725858      2.6009877323165167      5.6349323558587052
   149   3      4.6079292254030255      7.4318461750463234      1.3166483637921624
   150   3      1.6925251250994144     0.97717983658635321      3.3010724808649616
   151   3      10.533896728729346      1.7233037169660537      10.497909325974684
   152   3      8.4935046405579033     0.67664243446455885      11.990995437986426
   153   3      1.9866661589096957      5.8223618118919376      12.893491667310936
   154   3      7.0562056764563943      5.3351072667938233      10.005165834389071
   155   3     0.84005388041692952      1.0928217991176017      12.649792695594504
   156   3      3.0937025264986402      7.1134291769595652      10.758774910504663
   157   3      7.5213066245063471      2.3857284981765683      1.3166483637921624
   158   3      2.3964581327402192      1.9205737496573334      10.567714650084802
   159   3      10.434684023609625      7.4318461750463234      1.3166483637921624
   160   3      5.7607139655732897      2.0139444175328007      7.8317424104285376
   161   3   -0.091981035799171912      1.9232580693246191      7.7073429418748303
   162   3      1.2208522740038206      6.0232975134561082      3.3010724808649616
   163   3      7.1265560767377041      2.6119100954286658      5.9071593194339336
   164   3        1.24826711990355      2.6124965691392323      5.8062285926830368
   165   3      4.1446140427812859      7.6909999699314975      5.8256320821496468
   166   3      4.6059025242026905      6.0232975134561082      3.3010724808649616
   167   3      7.0691557604688251      8.7241576060653649      12.744583157050563
   168   3      1.0808089769678986      3.5294735011514051      11.704280312640471
   169   3      9.2674079578394597      9.4263361652942432      10.093186492014564
   170   3      9.1742808053611551      2.9083204803541456      12.676003292261292
   171   3   -0.037307613152968329      4.7380460696144677      5.6711325957745178
   172   3       4.457187335260457      3.2274579101260863      10.024132159029049
   173   3      11.421493706672377      6.2762655412415285      11.642053373416196
   174   3      4.1003354579696989      4.3205574836175398      12.388267316595972
   175   3      6.4484170441668489     0.19518638804814134      10.322120374554357
   176   3      5.5127686498609272      6.3612673928960266      11.890660592311921
   177   3     0.39613685697174805      8.1665638767135995      9.9955526978078009
   178   3 -4.3599999999999992e-14      5.3207783573863692      1.3166483637921624
   179   3       8.740132197309876      0.2746606805166148      1.3166483637921624
   180   3      2.9133773991032776      0.2746606805166148      1.3166483637921624
   181   3      10.432657322409289      6.0232975134561082      3.3010724808649616
   182   3       7.519279923306013     0.97717983658635321      3.3010724808649616
   183   4   -0.066015654943274701      3.3353600905719709       6.708144968157991
   184   4      5.8745849825861756      3.3745379163761453      6.8161322763890828
   185   4      2.9133773991032776      1.6820392256232506      2.2987940834959804
   186   4 -4.3599999999999992e-14      6.7281569024930041      2.2987940834959804
   187   4      2.9324511714686854      8.4248416296679238      6.8246608849279697
   188   4      8.7657660239592765      8.4163684928138665      6.7740936482932819
   189   4      5.8267547982065553      6.7281569024930041      2.2987940834959804
   190   4       8.740132197309876      1.6820392256232506      2.2987940834959804
