(written by ASE)

190 atoms
4 atom types

0.0      11.653509596413199  xlo xhi
0.0        10.0922353537395  ylo yhi
0.0                      30  zlo zhi
                      0                       0                       0  xy xz yz

Atoms # atomic

     1   1      0.8338588239052015     0.46267230351098487      5.1544565022518372
     2   1      9.5657476463328699      5.5360985889423713      5.0786728833003609
     3   1      10.969968729451185      3.2688427317833963      10.254643291505024
     4   1      3.7284040979181787      5.5280048804552706      5.1397194071409276
     5   1      8.8019139969972162      3.0638094519818111      12.476602540050372
     6   1      6.7034594243663044     0.48882267063624701      5.1807291695958027
     7   1       3.947447529534351      2.6778159933770245      10.546047080359362
     8   1      2.1033704893958993      2.3159172528257685      8.1437953945505122
     9   1      5.0656131086666454      8.5139060412655958      11.167795624675414
    10   1      3.7546337913945762      4.5604180723228787                     0.5
    11   1      4.7949261799375309     0.64743746618769293      12.006593707352643
    12   1      6.6680111904978974      9.6065357491926271                     0.5
    13   1      3.0476682745358494      7.2507216991817147      9.3447485530524492
    14   1      3.2282366740779089      9.3521643780193031      11.198277736533472
    15   1      0.8857570032298151      4.0405075700807691       11.17983515699677
    16   1      5.7405091894010685      5.7639113518549872      8.1695221592524589
    17   1   -0.054726514336625946      5.6233313085720189       8.422016909568466
    18   1      1.0680041500752619      5.8347410892923808      12.742371949424442
    19   1      8.6543175903633447     0.61381099548417484      8.4612264009414204
    20   1      8.9398019973867591     0.23334796900211588      11.250912097119782
    21   1       2.770054109142547       0.778044831874948      8.1254667547793691
    22   1      11.269102969444242      1.5669935869867224      11.387817500114032
    23   1      5.9219910618654072      2.9700629880101266      10.608786089580095
    24   1      6.6656747630207986      2.8797277837324504      3.8043095294545042
    25   1     0.83891996481419984      2.8797277837324504      3.8043095294545042
    26   1      9.5790521621241194       7.925845460602198      3.8043095294545042
    27   1 -4.3599999999999992e-14      3.3640784512465056      2.4321633756321481
    28   1      2.9271749353254162      1.7713566813589929      6.8058879348242165
    29   1       2.895292103401796      4.0671388330907803       5.118688400542232
    30   1       8.740132197309876      6.0175168859635022                     0.5
    31   1 -4.3599999999999992e-14     0.97139920909375399                     0.5
    32   1      5.8267547982065553     0.97139920909375399                     0.5
    33   1      5.0280089988932302     0.49766579615364454      5.1715794657260981
    34   1      7.0314384274180011       4.368838255073852      10.294150136432815
    35   1     0.99118716176006638      2.3902181291004783       12.37601244823559
    36   1       8.740132197309876      9.3788974631443622      3.8043095294545042
    37   1     0.84125639229129867      9.6065357491926271                     0.5
    38   1      7.8872164778425704        5.50591987427131      5.1555705829812863
    39   1      5.8267547982065553      3.3640784512465056      2.4321633756321481
    40   1      9.1473104024685412      8.5878231191916061        10.6201340803897
    41   1       8.740132197309876      8.4101961281162527      2.4321633756321481
    42   1      2.9133773991032776      8.4101961281162527      2.4321633756321481
    43   1      9.5813885896011737      4.5604180723228787                     0.5
    44   1      2.9133773991032776      9.3788974631443622      3.8043095294545042
    45   1      2.5931486564383648      5.6924970991057195      10.282033393840527
    46   1      7.9632705050841839      2.1635805295093258      8.4329805779162683
    47   1       11.29847730727219      8.6985766549358061      11.685593001457544
    48   1      5.1333895127383204       7.346162187654099      8.1217233789175225
    49   1      7.1358769948529766      9.6159947668551862      12.470712683025114
    50   1      10.694670156266142      7.0418683469247894      8.2258880297390231
    51   1       2.436872963019955       1.128449222297162      10.880754090174619
    52   1      2.0744574342890343       7.925845460602198      3.8043095294545042
    53   1      2.9133773991032785      5.0461176768697538       1.866758950346576
    54   1      5.8267547982065997                       0       1.866758950346576
    55   1  8.9999999999999983e-16                       0       1.866758950346576
    56   1      7.8988758050185357      4.5604180723228804                     0.5
    57   1      2.0721210068119365      4.5604180723228804                     0.5
    58   1      10.812253204121857      9.6065357491926289                     0.5
    59   1      2.9133773991032776      6.0175168859635022                     0.5
    60   1      10.816383242186644       0.454235933147209       5.136212576172853
    61   1      2.0491673086754645      5.5136516099609612      5.2223966189949902
    62   1      8.4677715726928078      5.3362303745914961      10.764838118929489
    63   1      8.7469582270624482      4.0662264577372236      5.0963554458047096
    64   1      8.8060769455940342          5.006309818509      6.4821409893045026
    65   1      2.9637219130894046      4.9614048184364421      6.5300067337588583
    66   1      5.8626514527620364   -0.032558598258492631      6.5343151544625213
    67   1   -0.029286024647450424   -0.057488609141194136      6.5074977077292822
    68   1      5.9599961033502415      6.7175349147727106      6.8288882547704288
    69   1      5.7397326015547607        6.86391847355008      11.144510896032159
    70   1   -0.043775669699859056       6.459689956348651      6.9523940037290171
    71   1       8.636915940113294      1.5179509217449798      7.0570625253880204
    72   1      10.814589631598912      2.8797277837324491      3.8043095294545042
    73   1       7.098780096124333     0.71105030961891014      10.943341533188313
    74   1 -4.3599999999999992e-14      4.3327797862746138      3.8043095294545042
    75   1      4.9854984059152576      9.6065357491926289                     0.5
    76   1      3.7522973639175206       7.925845460602198      3.8043095294545042
    77   1      8.7401321973098778      5.0461176768697538       1.866758950346576
    78   1      3.7881818558626996      2.1186421559051554      8.1967576307342256
    79   1      4.8846994763187457      5.3994042243519491      12.230552052593374
    80   1      9.6442928084592232      1.9730604989519271       8.308171889986399
    81   1      1.1327677817943063      8.8964732496785697      10.248967606328744
    82   1     0.71166533534270049      7.1153602400517526      8.2971172606604977
    83   1       8.102270890796623       7.898995518220481      12.127708321063235
    84   1      6.7999693003877324      7.0850443157536329       8.225750937462152
    85   1  -0.0066754580748571496      9.0881744445830606      5.1176210952013896
    86   1      5.8267547982065553      4.3327797862746138      3.8043095294545042
    87   1      5.8643723625773756      9.1285628717224974       5.129767306734788
    88   1      7.9012122324956335       7.925845460602198      3.8043095294545042
    89   1      10.483828088385284       5.720517468154755      11.811422717493713
    90   1      4.9878348333923119      2.8797277837324491      3.8043095294545042
    91   1      2.9862152374840218      5.0772210563019229      12.661160537092099
    92   2      2.9079011066079712      5.0226374826842131      5.5044318842203532
    93   2      8.7498891071048472      5.0318358960041953      5.4549015301478843
    94   2      5.8267547982065997                       0     0.84163042435634416
    95   2   -0.084926319076559204      6.5563365693251079      7.9789137891070876
    96   2      8.7244471445452021      1.5690587455234797      8.0823227050026301
    97   2      8.7401321973098778      5.0461176768697538     0.84163042435634416
    98   2      2.9133773991032785      5.0461176768697538     0.84163042435634416
    99   2       5.860814214793046  -0.0063197596303687775      5.5052580800311066
   100   2       8.740132197309876      8.4101961281162527      3.4593945362622507
   101   2      5.9075297048693036      6.7280638909381851      7.8536532684201728
   102   2      2.9002434606671823       1.750225292313367      7.8303795332989514
   103   2      5.8267547982065553      3.3640784512465056      3.4593945362622507
   104   2 -4.3599999999999992e-14      3.3640784512465056      3.4593945362622507
   105   2  -0.0022016594656096445   -0.040484368127291892      5.4789231098540343
   106   2  8.9999999999999983e-16                       0     0.84163042435634416
   107   2      2.9133773991032776      8.4101961281162527      3.4593945362622507
   108   3      10.332679607183557      3.9695225735984261      7.6882719296298108
   109   3      2.9133773991032772      3.0917580036970467      3.3010724808649616
   110   3 -4.3599999999999992e-14      8.1378756805668004      3.3010724808649616
   111   3      5.8267547982065553      8.1378756805668004      3.3010724808649616
   112   3       4.132202971906807      2.3857284981765692      1.3166483637921624
   113   3      9.9589577701134058      2.3857284981765692      1.3166483637921624
   114   3      1.2188255728034858      7.4318461750463234      1.3166483637921624
   115   3      7.0455803710100851      7.4318461750463234      1.3166483637921624
   116   3       4.157793691949859        9.15699522705623       7.774676678566653
   117   3      5.7947297602934178       7.638996730391086      10.480780490821175
   118   3      4.4618983219526624      9.0849340032657722      11.773824159296172
   119   3      2.8852659294329621      7.1035678563211819      7.9583286739544752
   120   3      4.6460658393027758      4.1324897604312767      7.6299902559266544
   121   3      7.5814510926301955      9.1190192087960629      7.7297100171978181
   122   3      1.7395226804023509      9.2435481003530739       7.806220942962196
   123   3      7.5403356498352867      7.7024822872629697      5.7777183521690629
   124   3      1.6868670951205673      7.7078655129166327      5.9201935959414245
   125   3      8.7086435315009432      7.5072932197693429      11.469083162184626
   126   3      6.9142642664920082       3.107579117464216      10.790880096967298
   127   3      2.1061095041041202      4.9343990923670571      9.9434363282423295
   128   3      10.836638196849426       9.188136120127476      12.359132348883618
   129   3       4.134229673107142     0.97717983658635332      3.3010724808649616
   130   3       8.740132197309876      3.0917580036970467      3.3010724808649616
   131   3      4.6360093796173469      1.5505764844928445      12.274203665664869
   132   3      2.3703731227000069      9.7670388940702857       10.89071832516567
   133   3      5.8267547982065553      5.3207783573863692      1.3166483637921624
   134   3      9.2666442285000361      5.0236853160654169      11.260142864207207
   135   3      5.9240323173286038      4.7258134186882055      5.7199049878976664
   136   3       11.44573123147639      4.1124817443988384      10.090621153578203
   137   3      8.7759015655454462      7.0154840252439445      7.7582360977437705
   138   3      1.6945518262997477      2.3857284981765683      1.3166483637921624
   139   3       9.962788966563167      7.6578248159870554       5.727873843529208
   140   3      9.9609844713137417     0.97717983658635332      3.3010724808649616
   141   3      7.0476070722104192      6.0232975134561082      3.3010724808649616
   142   3      10.054905256737374      9.0960549456929645      7.6402839439934418
   143   3      1.1460248362913183      3.9982164437703465      7.6633055976950235
   144   3      7.0828535418435123      3.9513752109037017      7.7141947335699257
   145   3      2.9327866213120308      9.8360111529169796      5.7754224480817662
   146   3      8.7605527303853901      9.8234785033673084      5.7410821411095059
   147   3      4.5862726637481899       2.652918091797642      5.7255879290949006
   148   3      10.370839086161975      2.5635074698444127      5.7155605918929417
   149   3      4.6079292254030255      7.4318461750463234      1.3166483637921624
   150   3      1.6925251250994144     0.97717983658635321      3.3010724808649616
   151   3      10.563609576630249      1.8988367129183696      10.751337763484781
   152   3      8.3641484394296857     0.75813150503918181      11.886183554817524
   153   3       1.963092772710878      5.9671835176949095      13.130172381837514
   154   3      7.1897004993739362      5.3202750148371658      10.012068880791691
   155   3     0.70695497013192987      1.4351690540393416      12.282685581893256
   156   3      3.1039169326709253      7.1864286708951912      10.341113277289379
   157   3      7.5213066245063471      2.3857284981765683      1.3166483637921624
   158   3      2.5757176150169077      2.0320283080042287      10.537151321196298
   159   3      10.434684023609625      7.4318461750463234      1.3166483637921624
   160   3      5.7450781442975334      1.9325801575446706      7.7144362756124591
   161   3   -0.087250808152620471       1.887928202146014      7.7322094067584386
   162   3      1.2208522740038206      6.0232975134561082      3.3010724808649616
   163   3       7.040045733931132      2.5512215171587114      5.7483476228336849
   164   3       1.141461960522715      2.5745547410215668      5.7116654143944565
   165   3      4.0849767688205372      7.6698552991725828      5.8970124669915798
   166   3      4.6059025242026905      6.0232975134561082      3.3010724808649616
   167   3      7.1171504612105849      8.7659144063398902       12.91746257619041
   168   3      1.1173880776591791      3.7706369845738386      12.114326386427056
   169   3      9.2532417522130679      9.4548669414166984      10.155110711502681
   170   3      9.1480591636297408       3.079688907794313      13.353956202539248
   171   3   -0.076451112765955245      4.7229832227152331      5.7335902318033627
   172   3      4.6822947269424189      3.1400787721798196      10.093491520689643
   173   3      11.279899786736705      6.1932050370217544      12.163329147004694
   174   3       3.815956865877137      4.6238248163893765      12.350049931743719
   175   3      6.3395677867731974     0.29185939469226013      10.520477119835688
   176   3      5.6859937912648393      6.0188975195464325      12.148269905994198
   177   3     0.39119428069271711      8.2987858955033413      10.177684696792971
   178   3 -4.3599999999999992e-14      5.3207783573863692      1.3166483637921624
   179   3       8.740132197309876      0.2746606805166148      1.3166483637921624
   180   3      2.9133773991032776      0.2746606805166148      1.3166483637921624
   181   3      10.432657322409289      6.0232975134561082      3.3010724808649616
   182   3       7.519279923306013     0.97717983658635321      3.3010724808649616
   183   4   -0.075318325829130922      3.2790496897336667      6.7293777263995498
   184   4      5.8536008357077023      3.3230442813507528      6.7333037963864122
   185   4      2.9133773991032776      1.6820392256232506      2.2987940834959804
   186   4 -4.3599999999999992e-14      6.7281569024930041      2.2987940834959804
   187   4      2.9126648456503834      8.4904110531947516      6.8295674462808371
   188   4      8.7869852242335629      8.4101133924565357      6.7503690715546423
   189   4      5.8267547982065553      6.7281569024930041      2.2987940834959804
   190   4       8.740132197309876      1.6820392256232506      2.2987940834959804
