(written by ASE)

190 atoms
4 atom types

0.0      11.653509596413199  xlo xhi
0.0        10.0922353537395  ylo yhi
0.0                      30  zlo zhi
                      0                       0                       0  xy xz yz

Atoms # atomic

     1   1     0.84039992412982811     0.46295884418594263       5.201597476922398
     2   1      9.5822480446960476      5.5464914042221114      5.1437681273704055
     3   1      10.725191356307224      3.4965565834127488      10.170445169417398
     4   1      3.7433557720838766      5.5317098179295954      5.1978494852103738
     5   1      8.5128117767344413      3.0865694234098005       12.10374333355179
     6   1      6.6909819140825677     0.48547594739525329      5.2175788310675388
     7   1      3.6195843738490261      2.9145212221559547       10.36317703979087
     8   1      2.0137438713206426      2.1736265569136188      8.1014523508473584
     9   1      5.2339048553922671      8.8238149542933524      11.122704750594689
    10   1      3.7546337913945762      4.5604180723228787                     0.5
    11   1      4.8377526751547038     0.52661849867069455      12.033793475026105
    12   1      6.6680111904978974      9.6065357491926271                     0.5
    13   1      3.0999215267744122      7.6252691492915403       9.873590512404018
    14   1      3.0218354783133061       9.239163141218393      11.294684480351499
    15   1      0.8494762062381509      3.9655058675111214      10.947769127793022
    16   1      5.7533505390493405      5.7294213314138291      8.1187688120794785
    17   1   -0.044593882523261789      5.6637943372073485       8.358203359070524
    18   1      1.0694646483103605      5.9237248763028569      12.466652784261177
    19   1      8.7251969203554616     0.64573923629404872       8.433478673205645
    20   1      9.0540587914280763     0.32628402095280773      11.299499822573425
    21   1      2.8258865631596666     0.70202447409647339      8.1178064928784686
    22   1      10.920526328315347      1.5716380336801106      11.429086651213746
    23   1      5.8096411042983478      2.7649071519929138      10.766542836611357
    24   1      6.6656747630207986      2.8797277837324504      3.8043095294545042
    25   1     0.83891996481419984      2.8797277837324504      3.8043095294545042
    26   1      9.5790521621241194       7.925845460602198      3.8043095294545042
    27   1 -4.3599999999999992e-14      3.3640784512465056      2.4321633756321481
    28   1      2.9293926319632533       1.694713701463926      6.8210514686034296
    29   1      2.9114332735441506      4.0707121478683019      5.2090567959287091
    30   1       8.740132197309876      6.0175168859635022                     0.5
    31   1 -4.3599999999999992e-14     0.97139920909375399                     0.5
    32   1      5.8267547982065553     0.97139920909375399                     0.5
    33   1      5.0123047055909709     0.49533783292642508      5.2144118417747052
    34   1      6.8768550141026958      4.3825569509395654      10.109360182481304
    35   1      1.2161564524615018      2.0053037136860929      12.115096255992388
    36   1       8.740132197309876      9.3788974631443622      3.8043095294545042
    37   1     0.84125639229129867      9.6065357491926271                     0.5
    38   1      7.8910289374496605      5.5379094750671252      5.1785744536258305
    39   1      5.8267547982065553      3.3640784512465056      2.4321633756321481
    40   1      8.9981262917056224      8.5907890886977381      10.633168240281803
    41   1       8.740132197309876      8.4101961281162527      2.4321633756321481
    42   1      2.9133773991032776      8.4101961281162527      2.4321633756321481
    43   1      9.5813885896011737      4.5604180723228787                     0.5
    44   1      2.9133773991032776      9.3788974631443622      3.8043095294545042
    45   1      2.5113940017464089      5.7884767567505051      10.240858536203353
    46   1      7.9275142005488846      2.1419557755909415       8.405605965940822
    47   1      10.923659900492437      8.6662309815988205      11.361833301008669
    48   1      4.9821484270770693      7.2399413746969241      8.0781515557431245
    49   1      6.9597869282871994      9.2677370289253194      12.003546088967848
    50   1      10.779492870947086      7.1362820713192239      8.2671087401812819
    51   1      2.8740164349971868       1.126968336294526      10.832621380444962
    52   1      2.0744574342890343       7.925845460602198      3.8043095294545042
    53   1      2.9133773991032785      5.0461176768697538       1.866758950346576
    54   1      5.8267547982065997                       0       1.866758950346576
    55   1  8.9999999999999983e-16                       0       1.866758950346576
    56   1      7.8988758050185357      4.5604180723228804                     0.5
    57   1      2.0721210068119365      4.5604180723228804                     0.5
    58   1      10.812253204121857      9.6065357491926289                     0.5
    59   1      2.9133773991032776      6.0175168859635022                     0.5
    60   1      10.817246022369964     0.46297941165689099       5.206078677068902
    61   1      2.0616746799031143      5.5231848678742139      5.2266277333607665
    62   1      8.3335393353746721      5.4150154584024346      10.908062698197046
    63   1      8.7462608423043573      4.0867967023008491      5.1550468601689916
    64   1      8.7854117761349055      5.0398187401823806      6.5235710665560598
    65   1      2.9356230485648336      5.0267353892109643      6.5808447143901416
    66   1      5.8539112933076938   -0.019651667173759955      6.5788016376273202
    67   1  -0.0079017813505473603   -0.040552586446320246      6.5703839637624757
    68   1      5.8642661629640429      6.6971192362640251      6.8075500101518402
    69   1      6.1434940441962009      7.0342069745771738      10.782568440608676
    70   1   -0.002370832113259076      6.5904098520310495      6.9359475967502293
    71   1      8.6997637178892298      1.5845892150047176      7.0446133284120354
    72   1      10.814589631598912      2.8797277837324491      3.8043095294545042
    73   1      7.1210252498289801      0.8388616220306474       10.84719731676304
    74   1 -4.3599999999999992e-14      4.3327797862746138      3.8043095294545042
    75   1      4.9854984059152576      9.6065357491926289                     0.5
    76   1      3.7522973639175206       7.925845460602198      3.8043095294545042
    77   1      8.7401321973098778      5.0461176768697538       1.866758950346576
    78   1      3.7363696795366721      2.1382491092866354      8.1919266048687991
    79   1      4.9631283621943787      5.5265430956271748      12.010557834324482
    80   1      9.6236383168858364      2.0653430543131015      8.3469617362314157
    81   1      0.9920277196636188      8.6729175588455263       10.59772240769272
    82   1     0.78696251769512937      7.1154137697634114      8.3146819853328591
    83   1      8.1848436845540675      7.9381819065738615       12.19824348814365
    84   1      6.7005447679808929      7.1491743770596106      8.1727212612241402
    85   1   -0.005775392949034632      9.0958400663539027      5.1916272880967105
    86   1      5.8267547982065553      4.3327797862746138      3.8043095294545042
    87   1      5.8469249234207705      9.1248322355271565      5.1914987954597001
    88   1      7.9012122324956335       7.925845460602198      3.8043095294545042
    89   1      10.593609824421417      5.7500527743015128      11.666609316638388
    90   1      4.9878348333923119      2.8797277837324491      3.8043095294545042
    91   1      3.1753684431943889      4.4614955234843796      12.252717577643528
    92   2      2.9107479887731569      5.0409980861705757       5.552423266848046
    93   2      8.7469251821827996      5.0579709108881028      5.4957278363639341
    94   2      5.8267547982065997                       0     0.84163042435634416
    95   2   -0.037632262393012435      6.6181205509454077      7.9649480017559746
    96   2      8.7421766443253368      1.6115260226149075        8.07416685649698
    97   2      8.7401321973098778      5.0461176768697538     0.84163042435634416
    98   2      2.9133773991032785      5.0461176768697538     0.84163042435634416
    99   2      5.8478543169331667  -0.0025770765018965445      5.5498416650594429
   100   2       8.740132197309876      8.4101961281162527      3.4593945362622507
   101   2      5.8302277750108482      6.7119981065833638      7.8278393825097812
   102   2      2.8796115609397357      1.6870065101197782      7.8380228144801158
   103   2      5.8267547982065553      3.3640784512465056      3.4593945362622507
   104   2 -4.3599999999999992e-14      3.3640784512465056      3.4593945362622507
   105   2   0.0036364074131438923   -0.028784220278805738      5.5409006259561435
   106   2  8.9999999999999983e-16                       0     0.84163042435634416
   107   2      2.9133773991032776      8.4101961281162527      3.4593945362622507
   108   3      10.306484988143067      4.0079604427507789      7.6431575930934743
   109   3      2.9133773991032772      3.0917580036970467      3.3010724808649616
   110   3 -4.3599999999999992e-14      8.1378756805668004      3.3010724808649616
   111   3      5.8267547982065553      8.1378756805668004      3.3010724808649616
   112   3       4.132202971906807      2.3857284981765692      1.3166483637921624
   113   3      9.9589577701134058      2.3857284981765692      1.3166483637921624
   114   3      1.2188255728034858      7.4318461750463234      1.3166483637921624
   115   3      7.0455803710100851      7.4318461750463234      1.3166483637921624
   116   3      4.1558237769821176      9.1292359414759687      7.7905762528254829
   117   3        6.20668653341877      7.8873383939093911      10.283991327928943
   118   3      4.5821903681114016      9.1048849717011322      11.836677639266146
   119   3      2.9339587748091014      7.0708521056575204      7.8874724536672112
   120   3      4.6210766612190346      4.1643421186974319       7.622571311378227
   121   3      7.5678772137380736      9.1532932961643745      7.7076926608749492
   122   3      1.7446873368390032      9.1785580562715765      7.7640032206052352
   123   3      7.5255369385856605      7.6955603538837005      5.7940225485348034
   124   3      1.7023291209606908      7.6726867972843831      5.8498099612247101
   125   3      8.7953918163443241      7.5649096902415716      11.565237009902431
   126   3      6.8028018957049312      2.8507459264554083      10.822139617994136
   127   3       2.202038809059109       4.940752424983418      9.9394390262302608
   128   3      11.088491344273461      9.1597163694837604        12.1662757712161
   129   3       4.134229673107142     0.97717983658635332      3.3010724808649616
   130   3       8.740132197309876      3.0917580036970467      3.3010724808649616
   131   3      4.7501193419827201       1.480837567060461      12.102263484513561
   132   3      2.3945843962548232      9.4949509594352577      10.619622364512297
   133   3      5.8267547982065553      5.3207783573863692      1.3166483637921624
   134   3      9.1346832531841198      5.0673331499867107      11.347019752614294
   135   3      5.9804765433258895       4.746465573746276      5.7422499357859538
   136   3      11.200402594530502      4.3005960252860431      9.9917073879236415
   137   3      8.7652016272222006      7.0364158553182969      7.7722369495641761
   138   3      1.6945518262997477      2.3857284981765683      1.3166483637921624
   139   3       9.961115817909528      7.6556282205021677      5.7464538141560757
   140   3      9.9609844713137417     0.97717983658635332      3.3010724808649616
   141   3      7.0476070722104192      6.0232975134561082      3.3010724808649616
   142   3      10.026486471866875      9.1235771110695634      7.6437904633381617
   143   3       1.097474549993773      4.0268344173995612      7.6794529519911725
   144   3      7.0570010426021641      4.0333517216044292      7.7910827812699317
   145   3      2.9551409386271605      9.8250998808987369      5.7861392432257386
   146   3       8.758859134543993      9.8123885631990522      5.7159677517961489
   147   3      4.6673813338186143      2.6602329084208924      5.7460826111572754
   148   3      10.425969484086018      2.5685321261784693      5.6872479992073526
   149   3      4.6079292254030255      7.4318461750463234      1.3166483637921624
   150   3      1.6925251250994144     0.97717983658635321      3.3010724808649616
   151   3      10.539457590925254       1.785931113440334      10.584002512079579
   152   3      8.3981801150392741     0.74325375622111978      11.874817747344549
   153   3      1.9602109170996564      5.9079588586395868      12.897547974964436
   154   3      7.0615950327834502      5.3271416693690377      10.065806677735637
   155   3     0.87780307610267083      1.1932687075927111      12.523317857986923
   156   3       3.178105483247514      7.1836591632589339      10.709227754688138
   157   3      7.5213066245063471      2.3857284981765683      1.3166483637921624
   158   3      2.4514698528304528      1.9161449401216659      10.512897983065095
   159   3      10.434684023609625      7.4318461750463234      1.3166483637921624
   160   3      5.7538026530066508      2.0009356605977819      7.8076753169418245
   161   3   -0.073499296211639392       1.979667230146493      7.7078469243712924
   162   3      1.2208522740038206      6.0232975134561082      3.3010724808649616
   163   3      7.1246796345046297      2.5813688839148408      5.8735923065132711
   164   3      1.1807219436256313      2.6226003715359121      5.7410734345193397
   165   3      4.1324444733480288      7.6807774706761869      5.8441672660532786
   166   3      4.6059025242026905      6.0232975134561082      3.3010724808649616
   167   3      7.0254201378167753      8.6028061992334219       12.67938571365279
   168   3     0.99807317242730642      3.6442661959632741       11.85693733127362
   169   3      9.3192685779871329      9.3811302258204581      10.115807974349302
   170   3      9.2161661560408401      3.0392134020013906      12.745596656426297
   171   3   -0.025504505689603874      4.7479942843806127      5.7227870726100454
   172   3      4.4739213877035118      3.2170184685882774       10.04532971121397
   173   3      11.440601686055089      6.2250772412105189      11.817652287137165
   174   3      4.0777634122916391      4.4339682447639959      12.207879239136048
   175   3       6.512030135406472     0.21247256305222523      10.429428051392584
   176   3      5.5862121039197818      6.2618900580356964      11.897811689775834
   177   3     0.42404432620769583      8.1792554133333688      9.9994702973767868
   178   3 -4.3599999999999992e-14      5.3207783573863692      1.3166483637921624
   179   3       8.740132197309876      0.2746606805166148      1.3166483637921624
   180   3      2.9133773991032776      0.2746606805166148      1.3166483637921624
   181   3      10.432657322409289      6.0232975134561082      3.3010724808649616
   182   3       7.519279923306013     0.97717983658635321      3.3010724808649616
   183   4   -0.069783442995768344      3.3293815121036201       6.696771450804464
   184   4      5.8766647946981188      3.3595718937720891      6.7792068701877142
   185   4      2.9133773991032776      1.6820392256232506      2.2987940834959804
   186   4 -4.3599999999999992e-14      6.7281569024930041      2.2987940834959804
   187   4      2.9314562269651736      8.4334443337602618      6.8177642605287545
   188   4      8.7732286874901888      8.4131295790975429      6.7556235562140632
   189   4      5.8267547982065553      6.7281569024930041      2.2987940834959804
   190   4       8.740132197309876      1.6820392256232506      2.2987940834959804
