(written by ASE)

190 atoms
4 atom types

0.0      11.653509596413199  xlo xhi
0.0        10.0922353537395  ylo yhi
0.0                      30  zlo zhi
                      0                       0                       0  xy xz yz

Atoms # atomic

     1   1     0.84109469945739246     0.48753816954588441      5.2230591097441135
     2   1      9.5845109691577068      5.5318563788691533      5.2200216245263107
     3   1      10.608703487275042       3.463845346285567      10.327211846675658
     4   1      3.7529852360821443      5.5337814708176767      5.2204976189662062
     5   1       8.234693843319759      2.9345056858634582      11.637144575283939
     6   1      6.6695636311941504     0.48374895245580729      5.2182930022086049
     7   1      2.9033807367737592      2.9813025830678179      10.342272139025914
     8   1      2.1097062262301618      2.1362299315537761       8.330578194943838
     9   1      4.9830626690469328      9.0699920795833258      10.887324558312624
    10   1      3.7546337913945762      4.5604180723228787                     0.5
    11   1       5.041735164151409     0.69242240840388314      11.798719537891088
    12   1      6.6680111904978974      9.6065357491926271                     0.5
    13   1      3.7624335528110282      7.5891817849074945      10.399842781525095
    14   1      2.9295951813984118      9.0460155698233127       11.53519362121164
    15   1     0.91510777270311328      3.8457727583643311      10.845770693707824
    16   1      5.7964001041446798      5.7309330788140054      8.2682668881922474
    17   1   -0.002652848819617771      5.7456073496778428      8.3968757006341548
    18   1     0.93782563570625843       5.939991840214665      11.615003097823925
    19   1      8.7424876476343911      0.6876157392142046      8.4117932641984794
    20   1      8.9177652933315521     0.88382494365971487      10.978736944899088
    21   1      2.8679082308207602     0.73394300364779408      8.3384979248782223
    22   1       10.65158095068837      1.8126620333735839      11.379493815572857
    23   1       5.923360970410342      2.8178104020836581      10.571902406522804
    24   1      6.6656747630207986      2.8797277837324504      3.8043095294545042
    25   1     0.83891996481419984      2.8797277837324504      3.8043095294545042
    26   1      9.5790521621241194       7.925845460602198      3.8043095294545042
    27   1 -4.3599999999999992e-14      3.3640784512465056      2.4321633756321481
    28   1      2.9117852845985572      1.6910010704445841      6.8813468829956594
    29   1       2.909886061579285      4.0728633770940448      5.2228899494875529
    30   1       8.740132197309876      6.0175168859635022                     0.5
    31   1 -4.3599999999999992e-14     0.97139920909375399                     0.5
    32   1      5.8267547982065553     0.97139920909375399                     0.5
    33   1      4.9828276677902243     0.48507903029258231      5.2203397626506467
    34   1      6.7849751377974918      4.6061442960327996      10.284250342051745
    35   1      1.1767574248942876      1.7669082516285091      11.739728809317885
    36   1       8.740132197309876      9.3788974631443622      3.8043095294545042
    37   1     0.84125639229129867      9.6065357491926271                     0.5
    38   1      7.8992473938238668      5.5339024432126918      5.2178275809280743
    39   1      5.8267547982065553      3.3640784512465056      2.4321633756321481
    40   1      8.9085446759934346       9.128568933456684      11.038306220694812
    41   1       8.740132197309876      8.4101961281162527      2.4321633756321481
    42   1      2.9133773991032776      8.4101961281162527      2.4321633756321481
    43   1      9.5813885896011737      4.5604180723228787                     0.5
    44   1      2.9133773991032776      9.3788974631443622      3.8043095294545042
    45   1      2.8924201581117543      5.8766765653721533      10.527343117130565
    46   1      7.9020677725664559      2.1675870967628206      8.3963967277302949
    47   1      10.825272967882576      8.4851385996415427      10.936916167231914
    48   1      5.0118070257694551      7.2019508599818627      8.2920984152120649
    49   1      7.0656058415145502      9.1137499844500489      11.066701589373444
    50   1      10.816386500368203      7.2341677476213526      8.3692387456521846
    51   1      3.4224107259145349      1.1036582805667781      10.526745570389748
    52   1      2.0744574342890343       7.925845460602198      3.8043095294545042
    53   1      2.9133773991032785      5.0461176768697538       1.866758950346576
    54   1      5.8267547982065997                       0       1.866758950346576
    55   1  8.9999999999999983e-16                       0       1.866758950346576
    56   1      7.8988758050185357      4.5604180723228804                     0.5
    57   1      2.0721210068119365      4.5604180723228804                     0.5
    58   1      10.812253204121857      9.6065357491926289                     0.5
    59   1      2.9133773991032776      6.0175168859635022                     0.5
    60   1      10.813754627996232     0.48720657291951674       5.221494777214537
    61   1      2.0699747444238761      5.5318417020574167      5.2225055799959392
    62   1      8.7115205104845987      5.4582843700152175      10.796784230404528
    63   1      8.7457536994231422      4.0728015806425004      5.2193538720507808
    64   1        8.75102069585461      5.0452585419714078      6.5840902264274614
    65   1      2.9076418979835599      5.0463134268727234      6.5911110697072521
    66   1      5.8280042276555104  -0.0021029120922822914      6.5887966135236029
    67   1  -0.0005039456988396629  0.00023047051756741531      6.5917806531650962
    68   1      5.8198022380707553      6.6962728653321379      6.8831480760269557
    69   1      6.4774801862191156      6.7666459440669362      10.578208731298899
    70   1   0.0043836973341816717      6.7154728815596894      7.0400353780372855
    71   1      8.7483560070628101      1.6854691506083734      7.0512150735994261
    72   1      10.814589631598912      2.8797277837324491      3.8043095294545042
    73   1      7.0336341445272703      1.0345686458439169      11.301553097318958
    74   1 -4.3599999999999992e-14      4.3327797862746138      3.8043095294545042
    75   1      4.9854984059152576      9.6065357491926289                     0.5
    76   1      3.7522973639175206       7.925845460602198      3.8043095294545042
    77   1      8.7401321973098778      5.0461176768697538       1.866758950346576
    78   1      3.6974493839545217      2.1652043224469217      8.3481393978660172
    79   1      4.9362451047614062      5.6646958373207239      10.883890713000563
    80   1      9.5959375715060311      2.1597084037258174      8.4008090471430954
    81   1     0.82984810087730609       8.291567651231329      11.045688125639767
    82   1     0.83254437777665191      7.2120737515025191      8.4373904045921932
    83   1      7.9024333180851274      7.3424776728645966      11.672978567951404
    84   1      6.6284337289824151      7.1925191570297944      8.2987550662225154
    85   1  0.00066445545286784185      9.1211624961757174      5.2203468365415882
    86   1      5.8267547982065553      4.3327797862746138      3.8043095294545042
    87   1      5.8270799853729995      9.1219838148065229      5.2197040114168187
    88   1      7.9012122324956335       7.925845460602198      3.8043095294545042
    89   1      10.679141564900359      6.0961924999793338      10.987811802685082
    90   1      4.9878348333923119      2.8797277837324491      3.8043095294545042
    91   1      3.7794051098263086      4.4705042507759956      11.714594053780718
    92   2      2.9130632251633983      5.0454619218930414      5.5616154584862807
    93   2      8.7406002340416276      5.0462116758674282      5.5559416255189182
    94   2      5.8267547982065997                       0     0.84163042435634416
    95   2   0.0037837144617404918      6.7220849628384496      8.0690653394620817
    96   2      8.7462572509051313      1.6703952778824973      8.0841020044487024
    97   2      8.7401321973098778      5.0461176768697538     0.84163042435634416
    98   2      2.9133773991032785      5.0461176768697538     0.84163042435634416
    99   2      5.8260980887203182   0.0014552615003498306      5.5597361223594888
   100   2       8.740132197309876      8.4101961281162527      3.4593945362622507
   101   2      5.8146442448890889      6.6920463788403355      7.9079499180370014
   102   2      2.9127511613216086      1.6640240209731101      7.8995176179442756
   103   2      5.8267547982065553      3.3640784512465056      3.4593945362622507
   104   2 -4.3599999999999992e-14      3.3640784512465056      3.4593945362622507
   105   2    0.000950774083925292  0.00010098585115496909      5.5617535922959052
   106   2  8.9999999999999983e-16                       0     0.84163042435634416
   107   2      2.9133773991032776      8.4101961281162527      3.4593945362622507
   108   3      10.380361363518958      4.0620736004903932      7.6502320302644788
   109   3      2.9133773991032772      3.0917580036970467      3.3010724808649616
   110   3 -4.3599999999999992e-14      8.1378756805668004      3.3010724808649616
   111   3      5.8267547982065553      8.1378756805668004      3.3010724808649616
   112   3       4.132202971906807      2.3857284981765692      1.3166483637921624
   113   3      9.9589577701134058      2.3857284981765692      1.3166483637921624
   114   3      1.2188255728034858      7.4318461750463234      1.3166483637921624
   115   3      7.0455803710100851      7.4318461750463234      1.3166483637921624
   116   3      4.1507627174972708       9.084161947062352      7.9306278204717362
   117   3      6.3593984885248327      7.5271549213625359      9.9774102029127256
   118   3      4.8288916585103978       9.479328770184182      11.690211992458124
   119   3      2.9435000449971049      7.0167373414798062       7.923501462047212
   120   3      4.6664997570072799      4.1067457957110074      7.8767649519111771
   121   3      7.5107243373923902      9.1054887959977648      7.8776579542630856
   122   3       1.698985654671574       9.112302911339043      7.8606742222104051
   123   3      7.5272260751904785      7.7010177423180668      5.9154373493108805
   124   3      1.6961889169008011      7.6859780132615656      5.9098720118749091
   125   3       8.807210433182405       7.461732944545612      11.804753875483014
   126   3      6.8278045350092746      2.9046143784207024      10.855024231630583
   127   3      2.6982466145689767      5.1403741535681924      9.9203239255012345
   128   3       10.91579511296978      8.8216466639610509      11.828293831577531
   129   3       4.134229673107142     0.97717983658635332      3.3010724808649616
   130   3       8.740132197309876      3.0917580036970467      3.3010724808649616
   131   3      4.5535442880767434      1.4327711167095991      12.087180398774672
   132   3      2.8059532005355181        9.11057108998987      10.608563557632595
   133   3      5.8267547982065553      5.3207783573863692      1.3166483637921624
   134   3      8.9619444070908951      5.2374905617992065      11.678010380420531
   135   3      5.8453758748187949      4.7739452338965345      5.9047462427250617
   136   3      10.663028206862405      4.2512846481570827      9.8048563230112702
   137   3      8.7334804634377132       7.000096462891336      7.9215771634997232
   138   3      1.6945518262997477      2.3857284981765683      1.3166483637921624
   139   3      9.9531307933414688       7.695731700926121      5.9112104087215167
   140   3      9.9609844713137417     0.97717983658635332      3.3010724808649616
   141   3      7.0476070722104192      6.0232975134561082      3.3010724808649616
   142   3      9.9767894467342284      9.1053836225281657      7.8574941752891165
   143   3      1.1932228634742919      4.0556821454595697      7.8900404511366116
   144   3      7.0322419249884414      4.0849572041794922      7.9698234258943215
   145   3      2.9318538656564983      9.8175244208260946      5.9051647685370821
   146   3      8.7329052543959325      9.8230502533685478      5.9083548097767578
   147   3      4.6051240719654594      2.6553223014478355      5.9059964498314725
   148   3       10.43403611305922      2.6241545892986338      5.8696250035384461
   149   3      4.6079292254030255      7.4318461750463234      1.3166483637921624
   150   3      1.6925251250994144     0.97717983658635321      3.3010724808649616
   151   3      10.866274326541742      1.9871864145497251      10.461217520138897
   152   3      8.7275077400928485     0.73527810537708294       11.89663568717136
   153   3      1.6654065335126269      6.2672776947501108      12.198933801283859
   154   3      6.7482418258055183      5.2190614632214212      11.019238596905431
   155   3     0.87991901795444016     0.98502324757865323      12.208590163186603
   156   3      3.2794379680721701      7.0633422296931228      11.030395542287636
   157   3      7.5213066245063471      2.3857284981765683      1.3166483637921624
   158   3      2.5461148361052346      1.1388693322231702      10.186060597597606
   159   3      10.434684023609625      7.4318461750463234      1.3166483637921624
   160   3      5.8275551910189627      1.9843953437674715      7.9196856008784495
   161   3   0.0054198357818654556      1.9648719693993086      7.8901229300404632
   162   3      1.2208522740038206      6.0232975134561082      3.3010724808649616
   163   3      7.0488170403729491      2.6701442251183809      5.9347643195915918
   164   3      1.2240466559204954       2.657594821978341      5.8960225596114508
   165   3      4.1274458113063481      7.7104448789100823      5.9232915249779845
   166   3      4.6059025242026905      6.0232975134561082      3.3010724808649616
   167   3      7.2659944610186002      8.8954295783796571      11.970458763066944
   168   3      1.0549587365463149      3.4460592034915134      11.697297894447141
   169   3      8.9442781860760299       9.243000934428629      10.076918898187243
   170   3      9.0960041482505201      2.9889309138817457      12.018131938703027
   171   3    0.024017770555771055      4.7835777713106404       5.879877907015473
   172   3      3.6470720298650336      3.1134418435610121      9.7915049142824913
   173   3      11.290026130808434      5.9808077092651244      11.677128572518329
   174   3      4.3568186676973628      3.9174514235624445      12.199248155699266
   175   3      6.7435486207737805     0.60434949488387169      10.486455956341198
   176   3      5.0591176365036974      6.2512937842990892      11.641339684124482
   177   3     0.67423060837515136      8.1457198951920109      10.113063600941494
   178   3 -4.3599999999999992e-14      5.3207783573863692      1.3166483637921624
   179   3       8.740132197309876      0.2746606805166148      1.3166483637921624
   180   3      2.9133773991032776      0.2746606805166148      1.3166483637921624
   181   3      10.432657322409289      6.0232975134561082      3.3010724808649616
   182   3       7.519279923306013     0.97717983658635321      3.3010724808649616
   183   4    0.010937803162336326      3.3512015029825517      6.8806423067911142
   184   4      5.8285918150599185      3.3701566339775164      6.9250579392911176
   185   4      2.9133773991032776      1.6820392256232506      2.2987940834959804
   186   4 -4.3599999999999992e-14      6.7281569024930041      2.2987940834959804
   187   4       2.921147826040928      8.4041852909983117      6.9332230641404324
   188   4       8.736503351624032       8.404568531900054       6.932754978865785
   189   4      5.8267547982065553      6.7281569024930041      2.2987940834959804
   190   4       8.740132197309876      1.6820392256232506      2.2987940834959804
