(written by ASE)

190 atoms
4 atom types

0.0      11.653509596413199  xlo xhi
0.0        10.0922353537395  ylo yhi
0.0                      30  zlo zhi
                      0                       0                       0  xy xz yz

Atoms # atomic

     1   1     0.84063246333950292     0.48579568187679179      5.2204949353905192
     2   1      9.5811577748756456      5.5319356664063113      5.2201354351891842
     3   1      10.713877849006149       3.511947872884456      10.393296200329006
     4   1      3.7535992185946112      5.5319044774814854      5.2201033175303646
     5   1      8.2528424139908623      2.8449222057527299       11.60875872713315
     6   1      6.6677435019967337     0.48531786859918935      5.2200877898457243
     7   1       2.719992827499254      2.9719512246174502      10.406727856984856
     8   1      2.0771529809781315      2.1629725676120262      8.3905517082313068
     9   1      4.9698848744463842      9.1247448916593683      10.720299360972964
    10   1      3.7546337913945762      4.5604180723228787                     0.5
    11   1      5.0888238503812024     0.84006064149196924      11.635729701193339
    12   1      6.6680111904978974      9.6065357491926271                     0.5
    13   1      3.8312986913158418      7.5100339698551251      10.402022141357712
    14   1      2.8640638510464664      9.0962197546971559      11.595791983478154
    15   1     0.92685242388237443      3.7134078163286919      10.766971807550641
    16   1      5.8158215108388651      5.7491031986837919       8.367484966280383
    17   1    -0.00154316235979888      5.7417848117453678      8.3920410179381495
    18   1     0.97081644695514135      5.8528701218598655      11.433224876264678
    19   1      8.7376567425698859      0.6960135624196494      8.3945540107877861
    20   1      8.8293856023356287     0.98186922286428435      10.721396213937595
    21   1      2.8948675539196804     0.71407191495512867      8.3961314857171239
    22   1      10.716642162883081      1.9694784783508823      11.579497644302657
    23   1       5.879659438447753      2.9151247724732365      10.403134317199722
    24   1      6.6656747630207986      2.8797277837324504      3.8043095294545042
    25   1     0.83891996481419984      2.8797277837324504      3.8043095294545042
    26   1      9.5790521621241194       7.925845460602198      3.8043095294545042
    27   1 -4.3599999999999992e-14      3.3640784512465056      2.4321633756321481
    28   1      2.9142960003330929      1.6859303588498988        7.03729112949972
    29   1      2.9133884553314418      4.0746592310070531      5.2211019131408936
    30   1       8.740132197309876      6.0175168859635022                     0.5
    31   1 -4.3599999999999992e-14     0.97139920909375399                     0.5
    32   1      5.8267547982065553     0.97139920909375399                     0.5
    33   1      4.9850585670597631      0.4853176133326032       5.220411640641184
    34   1      6.7445011483073154      4.7209803136646995      10.396269949708065
    35   1      1.2246870445861882      1.8853385622329135       11.61712640915354
    36   1       8.740132197309876      9.3788974631443622      3.8043095294545042
    37   1     0.84125639229129867      9.6065357491926271                     0.5
    38   1      7.8994021121038145      5.5315140784010453      5.2195081723762033
    39   1      5.8267547982065553      3.3640784512465056      2.4321633756321481
    40   1      8.8985506760521336      9.1284094577834338      11.307965227932399
    41   1       8.740132197309876      8.4101961281162527      2.4321633756321481
    42   1      2.9133773991032776      8.4101961281162527      2.4321633756321481
    43   1      9.5813885896011737      4.5604180723228787                     0.5
    44   1      2.9133773991032776      9.3788974631443622      3.8043095294545042
    45   1      3.0118642962592559      5.7500752039688185      10.407657625784799
    46   1      7.8966540187136109        2.17550879860379      8.3912367624880719
    47   1      10.741876664247368      8.3285685867127004      10.696204191791322
    48   1       4.989136377178494      7.2223021797699998      8.3786431407560684
    49   1      6.9732270506474716      9.1374175691151382      10.783357959951415
    50   1      10.810280776194078      7.2290055768116481      8.3839412642775173
    51   1      3.4901536431526652     0.99695980475515389      10.399238335178653
    52   1      2.0744574342890343       7.925845460602198      3.8043095294545042
    53   1      2.9133773991032785      5.0461176768697538       1.866758950346576
    54   1      5.8267547982065997                       0       1.866758950346576
    55   1  8.9999999999999983e-16                       0       1.866758950346576
    56   1      7.8988758050185357      4.5604180723228804                     0.5
    57   1      2.0721210068119365      4.5604180723228804                     0.5
    58   1      10.812253204121857      9.6065357491926289                     0.5
    59   1      2.9133773991032776      6.0175168859635022                     0.5
    60   1       10.81294701955766     0.48529225499198198      5.2199351268388581
    61   1      2.0722408510497394      5.5318066696710169      5.2203766899030111
    62   1      8.6024851908516222      5.4836757667441667      10.658100151645765
    63   1      8.7408170280171831      4.0750037070386425      5.2201503739532011
    64   1       8.742271296381146      5.0458175618433918      6.5881073986741949
    65   1      2.9123945905713109      5.0453640337995367      6.5901269914325438
    66   1      5.8270226482458387  0.00050436608794029222      6.5903532912139626
    67   1  4.7104415254786552e-05  -0.0002197073553372919      6.5929030762015124
    68   1      5.8272171280512435      6.7238930267977626      7.0426766193407362
    69   1      6.6722039355876337      6.7616845120137912      10.434704153775096
    70   1  -0.0023471330295320382       6.726368244609171      7.0503539012741072
    71   1      8.7404196904080944      1.6839157012028549      7.0511739600151282
    72   1      10.814589631598912      2.8797277837324491      3.8043095294545042
    73   1      7.0301046624652628      1.1048522351790908      11.582173162788132
    74   1 -4.3599999999999992e-14      4.3327797862746138      3.8043095294545042
    75   1      4.9854984059152576      9.6065357491926289                     0.5
    76   1      3.7522973639175206       7.925845460602198      3.8043095294545042
    77   1      8.7401321973098778      5.0461176768697538       1.866758950346576
    78   1      3.7517811720321821       2.168348407726151       8.392619793889363
    79   1      4.9916383600071557      5.6995549617954318      10.619896993578589
    80   1      9.5938665272652042      2.1672429495472336      8.3956601193318061
    81   1     0.95928333361362239      8.3688278241263259      11.380417732597241
    82   1      0.8509950541702046      7.2166346095033536      8.4032682896429769
    83   1      8.0438463119258437      7.2605524176554148      11.616282807100575
    84   1      6.6720558726882402       7.217568844566161      8.3844734057654229
    85   1   0.0002808460719598894      9.1217025819797559      5.2200040740464209
    86   1      5.8267547982065553      4.3327797862746138      3.8043095294545042
    87   1      5.8269112315722502      9.1213173465309065      5.2197920376222307
    88   1      7.9012122324956335       7.925845460602198      3.8043095294545042
    89   1      10.715682370358371      6.2611535701160923      10.790428788563238
    90   1      4.9878348333923119      2.8797277837324491      3.8043095294545042
    91   1        3.83009459346134      4.4637399330196104      11.652790164928863
    92   2      2.9133035678995989      5.0463078708673965       5.563577514330424
    93   2      8.7399212585574499      5.0461491573531934        5.56367815154029
    94   2      5.8267547982065997                       0     0.84163042435634416
    95   2  -0.0014598168018068259      6.7268305537716273      8.0789721191815627
    96   2      8.7403511837463963      1.6796925219434908      8.0843395891336201
    97   2      8.7401321973098778      5.0461176768697538     0.84163042435634416
    98   2      2.9133773991032785      5.0461176768697538     0.84163042435634416
    99   2      5.8267925529049425  0.00051743778004668072      5.5628909802382323
   100   2       8.740132197309876      8.4101961281162527      3.4593945362622507
   101   2      5.8241684860703451      6.7182182476853427      8.0514729318797098
   102   2      2.9188021036981571      1.6827600126139719       8.031655095395708
   103   2      5.8267547982065553      3.3640784512465056      3.4593945362622507
   104   2 -4.3599999999999992e-14      3.3640784512465056      3.4593945362622507
   105   2  0.00039907121732978397  -4.332404351430025e-05      5.5633631464449556
   106   2  8.9999999999999983e-16                       0     0.84163042435634416
   107   2      2.9133773991032776      8.4101961281162527      3.4593945362622507
   108   3      10.437566477592313      4.0627746900261732      7.8850555264033728
   109   3      2.9133773991032772      3.0917580036970467      3.3010724808649616
   110   3 -4.3599999999999992e-14      8.1378756805668004      3.3010724808649616
   111   3      5.8267547982065553      8.1378756805668004      3.3010724808649616
   112   3       4.132202971906807      2.3857284981765692      1.3166483637921624
   113   3      9.9589577701134058      2.3857284981765692      1.3166483637921624
   114   3      1.2188255728034858      7.4318461750463234      1.3166483637921624
   115   3      7.0455803710100851      7.4318461750463234      1.3166483637921624
   116   3      4.1425559825043212       9.106363475421178      7.9199272233150246
   117   3      6.0253264570816656      7.4502175475903627      10.161099313386885
   118   3      4.7945198492526204      9.1513178491933136      11.658613296577961
   119   3      2.9243263088386517      6.9988692522847629      7.9190581199071497
   120   3      4.6232774897741464      4.0749591506586391      7.9096808815783284
   121   3      7.5149706979043707      9.1106283305505649      7.9077780569084117
   122   3      1.7009861577327072      9.1093330229783973      7.8960545831738518
   123   3      7.5212566059328605      7.7046070142499472       5.920938675275214
   124   3      1.6962181228084097      7.7028131763091494      5.9191082982440797
   125   3      9.0355373162251986      7.2539909679983641      11.645853510504455
   126   3      6.5498413201486647      2.9624064733171527      11.098226271999124
   127   3      2.5320591190757664       4.943458131151405      10.223255634791277
   128   3      10.816552118277212      8.4880027677537022      11.661573880784731
   129   3       4.134229673107142     0.97717983658635332      3.3010724808649616
   130   3       8.740132197309876      3.0917580036970467      3.3010724808649616
   131   3      4.6277653710877127      1.7064460646471877      11.820743433695309
   132   3      2.7377579317891505      9.0842508528548862      10.662965420507311
   133   3      5.8267547982065553      5.3207783573863692      1.3166483637921624
   134   3       8.655888461111509      5.2292457405536368      11.573793927247836
   135   3      5.8277924213871044      4.7713552156340757      5.9215881751849411
   136   3      10.359625939708947      4.3683970845722371      10.102026321479251
   137   3      8.7358936894302364       6.994553907874046      7.9164558519335726
   138   3      1.6945518262997477      2.3857284981765683      1.3166483637921624
   139   3       9.958318482369739      7.7058828511769919       5.918290110995005
   140   3      9.9609844713137417     0.97717983658635332      3.3010724808649616
   141   3      7.0476070722104192      6.0232975134561082      3.3010724808649616
   142   3      9.9597626177772565      9.1121732604661041      7.8999222872619805
   143   3       1.217717393276204      4.0667519437700435      7.9070172511934045
   144   3      7.0467500393216165      4.0761627056268495      7.9304978933074919
   145   3       2.915286515188392      9.8172971622898295      5.9179610227200889
   146   3      8.7379792621559016      9.8184349364284902      5.9184217413700155
   147   3      4.6107962648776359      2.6599582034736806      5.9203907582694288
   148   3      10.434705540726345      2.6573238825905041      5.9162805840271631
   149   3      4.6079292254030255      7.4318461750463234      1.3166483637921624
   150   3      1.6925251250994144     0.97717983658635321      3.3010724808649616
   151   3      10.791483080821051      1.6936544148675283      10.629402998222689
   152   3      8.8900912601126016     0.88503772719070206      11.700259495847178
   153   3      1.6435954192319389      6.4596574898751253      11.753946006411194
   154   3      6.8781472360694833      4.9458605804535258       11.30340630619868
   155   3     0.92083761441175427     0.98320518157299241      11.774776461243041
   156   3      3.5648931865021631      7.2428032924161716      11.261280753583067
   157   3      7.5213066245063471      2.3857284981765683      1.3166483637921624
   158   3      2.5533512844464759      1.0526205443724936       10.27807924468971
   159   3      10.434684023609625      7.4318461750463234      1.3166483637921624
   160   3       5.828128492054037      1.9586441536170038      7.9175453938197169
   161   3   0.0014518439841509495      1.9589968920073153       7.905820072096013
   162   3      1.2208522740038206      6.0232975134561082      3.3010724808649616
   163   3      7.0451912275309931      2.6627883240646875      5.9238395759717548
   164   3      1.2189212612724754      2.6620165940731706      5.9187062926148304
   165   3      4.1330745129668305      7.7076885669967403      5.9242815582038366
   166   3      4.6059025242026905      6.0232975134561082      3.3010724808649616
   167   3      7.0474371593481724      8.8258544783000037       11.74246729068139
   168   3      1.1853894292266531      3.7582022365736867      11.682064188238959
   169   3      8.8931293466165275      9.1427008008549286      10.298588809876771
   170   3      9.1545408172664704      3.1233417638715824      11.731456521883034
   171   3  0.00091516737625920407      4.7717316442932161       5.917644872819837
   172   3      3.6394523844029885      2.9679096430364638      10.092532033236479
   173   3      10.960293526067682      5.9482220781116348      11.651103733575132
   174   3      4.7006844585653749      4.0902511275674476      11.815164382312453
   175   3       6.846351218693683     0.87361242204856548      10.617615824228739
   176   3      5.1197849005407541      5.9987489731955872      11.518931664248724
   177   3     0.88451782818302593       8.110674423798903      10.413246333892717
   178   3 -4.3599999999999992e-14      5.3207783573863692      1.3166483637921624
   179   3       8.740132197309876      0.2746606805166148      1.3166483637921624
   180   3      2.9133773991032776      0.2746606805166148      1.3166483637921624
   181   3      10.432657322409289      6.0232975134561082      3.3010724808649616
   182   3       7.519279923306013     0.97717983658635321      3.3010724808649616
   183   4  -0.0052612173121915915      3.3638069170157907      6.9156987437309212
   184   4      5.8140866360885344      3.3631092209859106       6.891754942586882
   185   4      2.9133773991032776      1.6820392256232506      2.2987940834959804
   186   4 -4.3599999999999992e-14      6.7281569024930041      2.2987940834959804
   187   4      2.8953951225675132      8.4194815548787894      6.9093224739808434
   188   4      8.7474000904789087      8.4171504488977416      6.9175548846729935
   189   4      5.8267547982065553      6.7281569024930041      2.2987940834959804
   190   4       8.740132197309876      1.6820392256232506      2.2987940834959804
