(written by ASE)

190 atoms
4 atom types

0.0      11.653509596413199  xlo xhi
0.0        10.0922353537395  ylo yhi
0.0                      30  zlo zhi
                      0                       0                       0  xy xz yz

Atoms # atomic

     1   1     0.84204374857711251     0.46679345532579725      5.2120667541637502
     2   1      9.5823316989428342      5.5464969788892047      5.1626849968477053
     3   1      10.706250639102059      3.5874753223306999       10.20121174528426
     4   1      3.7452208817708099      5.5312109444232709      5.2141808616712586
     5   1       8.463293469170333      3.1352396447432578      12.037079359798135
     6   1      6.6856607381597257     0.48125719142670742      5.2206352988702038
     7   1      3.5093052813863816      2.9899482504782973      10.322703466493241
     8   1       2.031772327452118      2.1452418007178014      8.0789121788033249
     9   1      5.2258713408588608      8.8556363450743483      11.168061300135422
    10   1      3.7546337913945762      4.5604180723228787                     0.5
    11   1      4.8462585532139055     0.45783065504170734      12.127678075972634
    12   1      6.6680111904978974      9.6065357491926271                     0.5
    13   1      3.1503643032483639      7.6822850349666414      10.046018228635484
    14   1      2.9372786246660794      9.1965325172231971      11.248522448212762
    15   1     0.78154016231326129      4.0079532217617126      10.915707953610987
    16   1      5.7450085355324916       5.720782955642064      8.1041494443138777
    17   1    -0.04834634618730161      5.6750950736283823        8.33463556421788
    18   1      1.0985753049275988       6.019633466370629      12.505820766389736
    19   1      8.7392837395636196     0.65261307386722545      8.4328941830577762
    20   1      9.1590618460080186     0.41688010792451435      11.333035126864857
    21   1      2.8242358423081013     0.69254995734297198       8.101869903874249
    22   1      10.807335941311184      1.5758159328441386      11.380674894018835
    23   1      5.8622765914471708      2.6908442989304504      10.892712082381873
    24   1      6.6656747630207986      2.8797277837324504      3.8043095294545042
    25   1     0.83891996481419984      2.8797277837324504      3.8043095294545042
    26   1      9.5790521621241194       7.925845460602198      3.8043095294545042
    27   1 -4.3599999999999992e-14      3.3640784512465056      2.4321633756321481
    28   1      2.9141544930558552      1.6784534833679077      6.7095990127577085
    29   1      2.9103802665747769      4.0729913353845433      5.2237446194036199
    30   1       8.740132197309876      6.0175168859635022                     0.5
    31   1 -4.3599999999999992e-14     0.97139920909375399                     0.5
    32   1      5.8267547982065553     0.97139920909375399                     0.5
    33   1      5.0007747839473646     0.48830986925877984      5.2214914998981694
    34   1      6.8865757394475215      4.3684859576811377        10.0281130918238
    35   1      1.1897401911904313      1.7540933385931536      12.092230631659795
    36   1       8.740132197309876      9.3788974631443622      3.8043095294545042
    37   1     0.84125639229129867      9.6065357491926271                     0.5
    38   1      7.9026822903019465       5.535694603566971      5.1950926941739155
    39   1      5.8267547982065553      3.3640784512465056      2.4321633756321481
    40   1      9.0132867629992042      8.6549323713435289      10.624175410658307
    41   1       8.740132197309876      8.4101961281162527      2.4321633756321481
    42   1      2.9133773991032776      8.4101961281162527      2.4321633756321481
    43   1      9.5813885896011737      4.5604180723228787                     0.5
    44   1      2.9133773991032776      9.3788974631443622      3.8043095294545042
    45   1      2.4746788573815888      5.8697322573909672      10.266860362357498
    46   1      7.9231713218517186      2.1476720123233144      8.3953542235612364
    47   1      10.833966863227971      8.7453813546013812      11.381279305137118
    48   1       4.993460468241663      7.2024077491592182       8.081479076132764
    49   1        6.92678978111989      9.1851165812308793      11.885994769162417
    50   1      10.793553413949065      7.1534467437653584      8.2691123325617806
    51   1      2.8684430450083322      1.1695552925282588      10.904409773703907
    52   1      2.0744574342890343       7.925845460602198      3.8043095294545042
    53   1      2.9133773991032785      5.0461176768697538       1.866758950346576
    54   1      5.8267547982065997                       0       1.866758950346576
    55   1  8.9999999999999983e-16                       0       1.866758950346576
    56   1      7.8988758050185357      4.5604180723228804                     0.5
    57   1      2.0721210068119365      4.5604180723228804                     0.5
    58   1      10.812253204121857      9.6065357491926289                     0.5
    59   1      2.9133773991032776      6.0175168859635022                     0.5
    60   1       10.81571480649602     0.47323327841976348       5.222750231165981
    61   1      2.0658990984305068      5.5243933861288426      5.2278224925751102
    62   1      8.3082600457168585      5.4631129197519783       11.01186755137889
    63   1      8.7463738124182573      4.0858309879558563      5.1710040401558066
    64   1      8.7758321817619667      5.0456890432505705      6.5426129447031132
    65   1      2.9266408760655369      5.0369342297595221      6.5964453309347881
    66   1      5.8455122659871108   -0.017410017847496753      6.5865902971340597
    67   1  -0.0048101759716740345    -0.03242128350144987      6.5850278952475545
    68   1      5.8439344591109608      6.6798447796857898      6.6960882819783611
    69   1      6.1873981901824866      7.1306421831734852      10.755241357694343
    70   1   0.0021027952808432338       6.594840834187111      6.9561354495150596
    71   1      8.7241616298121052      1.6123924238428664      7.0473503319546706
    72   1      10.814589631598912      2.8797277837324491      3.8043095294545042
    73   1      7.0425829282321271      0.7973361079320892      10.760096860966557
    74   1 -4.3599999999999992e-14      4.3327797862746138      3.8043095294545042
    75   1      4.9854984059152576      9.6065357491926289                     0.5
    76   1      3.7522973639175206       7.925845460602198      3.8043095294545042
    77   1      8.7401321973098778      5.0461176768697538       1.866758950346576
    78   1      3.6839929519474119      2.1431408015200129      8.1738690697034624
    79   1      4.9297370673223142      5.5649097291632934      11.912603835144839
    80   1      9.6203507533513051      2.0921868892929099      8.3632076970734541
    81   1      1.0065790968741377      8.5092139398355098      10.630619692171752
    82   1     0.81729526833448707      7.1227422454658882      8.3398971148336649
    83   1       8.067686153246143      7.8099586597118034      12.174472255489393
    84   1      6.6229205216497675      7.1398123454358888      8.1378760208631107
    85   1  0.00033431885115378662      9.1034463433381791      5.2101837753840989
    86   1      5.8267547982065553      4.3327797862746138      3.8043095294545042
    87   1      5.8375149784808764      9.1256308494265035      5.2039286234604178
    88   1      7.9012122324956335       7.925845460602198      3.8043095294545042
    89   1       10.73754358157673      5.6706562802414924      11.719669714815661
    90   1      4.9878348333923119      2.8797277837324491      3.8043095294545042
    91   1      3.2066518972950107      4.4358981633337864      12.043338939669216
    92   2      2.9109772760227912      5.0433128008074455      5.5663906840296882
    93   2      8.7504601881581205      5.0553246679085273      5.5143718937638235
    94   2      5.8267547982065997                       0     0.84163042435634416
    95   2   -0.016440318180868413       6.639546362125456      7.9808881740174531
    96   2       8.750107517227196      1.6238386175534452      8.0773381107881264
    97   2      8.7401321973098778      5.0461176768697538     0.84163042435634416
    98   2      2.9133773991032785      5.0461176768697538     0.84163042435634416
    99   2      5.8406641829146215  -0.0007515539185020037      5.5572003652306297
   100   2       8.740132197309876      8.4101961281162527      3.4593945362622507
   101   2      5.8020692338669759       6.678786428702006      7.7352423564194179
   102   2      2.8764405843197904      1.6606056317185007      7.7509592147374882
   103   2      5.8267547982065553      3.3640784512465056      3.4593945362622507
   104   2 -4.3599999999999992e-14      3.3640784512465056      3.4593945362622507
   105   2    0.003979681690693646   -0.020106547637582871      5.5548038499399714
   106   2  8.9999999999999983e-16                       0     0.84163042435634416
   107   2      2.9133773991032776      8.4101961281162527      3.4593945362622507
   108   3      10.274183482213308       4.028208261856232      7.4746443336228232
   109   3      2.9133773991032772      3.0917580036970467      3.3010724808649616
   110   3 -4.3599999999999992e-14      8.1378756805668004      3.3010724808649616
   111   3      5.8267547982065553      8.1378756805668004      3.3010724808649616
   112   3       4.132202971906807      2.3857284981765692      1.3166483637921624
   113   3      9.9589577701134058      2.3857284981765692      1.3166483637921624
   114   3      1.2188255728034858      7.4318461750463234      1.3166483637921624
   115   3      7.0455803710100851      7.4318461750463234      1.3166483637921624
   116   3      4.1653675789810221      9.1173712520586552      7.8193460130784134
   117   3      6.4795864335982305      7.8499747324812876      10.182632053316615
   118   3      4.5935989836857667      9.1488247198619668      11.811770109163714
   119   3      2.9481001716061574      7.0385292591784028       7.867756996864558
   120   3      4.6399245493310888      4.2099054093240458      7.6328441932095012
   121   3      7.5610352284732265      9.1532918324834238      7.7246379649237671
   122   3      1.7237372957110904      9.1632353256999863      7.7599914125267508
   123   3      7.5297848496269992      7.6845622302290622      5.7911101331437864
   124   3      1.7292702422195645      7.7005715235609165      5.8572936053621563
   125   3      8.8799251460983566      7.5677609695015038      11.597345092854741
   126   3       6.798091887336013      2.8651792170500388      10.658565651701348
   127   3      2.2752578121085261      5.0016577416482297      9.8848510074786802
   128   3      11.183220545361944       9.215720684692192      12.122001198091182
   129   3       4.134229673107142     0.97717983658635332      3.3010724808649616
   130   3       8.740132197309876      3.0917580036970467      3.3010724808649616
   131   3      4.7565924255476055       1.450304917768531      12.077731623544604
   132   3      2.4588327199565088      9.5931296464298672      10.522951467807232
   133   3      5.8267547982065553      5.3207783573863692      1.3166483637921624
   134   3      9.1694003453609483      5.1238964980228783      11.349201735312532
   135   3      6.0053213266824219      4.7400164435258212      5.7540064439347862
   136   3       11.19945321174646      4.3534387977656346      9.9010017355998485
   137   3       8.758858249845062      7.0483289442634174       7.813669479323158
   138   3      1.6945518262997477      2.3857284981765683      1.3166483637921624
   139   3      9.9427291928336228      7.6434117407306283      5.7653188448285047
   140   3      9.9609844713137417     0.97717983658635332      3.3010724808649616
   141   3      7.0476070722104192      6.0232975134561082      3.3010724808649616
   142   3      10.036943561601323      9.1234305323120211      7.6426450654866223
   143   3      1.1158267495702285      4.0848526793246576      7.7009341226102626
   144   3      7.0547432831598522      4.0754886119782707        7.86543053629258
   145   3      2.9703052324990487      9.7921786027203392      5.7791865631240595
   146   3      8.7398705140115336      9.7988779268729438      5.7338782785818223
   147   3      4.6980314256997264      2.6649346444709687      5.7755338931201203
   148   3      10.445432860592701      2.6035277218334976      5.6300518670555411
   149   3      4.6079292254030255      7.4318461750463234      1.3166483637921624
   150   3      1.6925251250994144     0.97717983658635321      3.3010724808649616
   151   3      10.554412413193612      1.7164153358604295      10.473591119081849
   152   3      8.5058794175443033      0.6394376930819452      12.014144771497225
   153   3      1.9810016460505766      5.8222630727559368      12.866206503601733
   154   3      7.0590579157461955      5.3318152128762808      10.054364539287095
   155   3     0.83077746734301339      1.0674006717103806      12.653799793943376
   156   3      3.0804384372651819      7.0853877166067436      10.780336681550478
   157   3      7.5213066245063471      2.3857284981765683      1.3166483637921624
   158   3      2.4071443839089888      1.9230865667941273      10.558994337007915
   159   3      10.434684023609625      7.4318461750463234      1.3166483637921624
   160   3      5.7630964214446214      2.0221360958718813      7.8402842246172408
   161   3    -0.10892286706373255      1.9231871021429803      7.7226854709886101
   162   3      1.2208522740038206      6.0232975134561082      3.3010724808649616
   163   3      7.1291340176630102      2.6170017780959522      5.9129087775625511
   164   3      1.2562665596770748      2.6150403960186925      5.8136685613480914
   165   3      4.1436524459199706      7.6958800579530866      5.8356491802944452
   166   3      4.6059025242026905      6.0232975134561082      3.3010724808649616
   167   3      7.1242367001165281      8.7914357683000119      12.732194065967402
   168   3      1.1152104601732513      3.4924548931332238      11.666810969666891
   169   3      9.2417620977242709      9.4493055742168419      10.091818482229002
   170   3      9.1620997583675887      2.8876628782857061      12.642352577370307
   171   3   -0.034464924457142838      4.7400321789944329      5.6638917838515885
   172   3      4.4163482944699748       3.204441345555769      9.9983592463745588
   173   3       11.44395470607993      6.2922039444494251      11.610213348061256
   174   3       4.097045157801567      4.2757784351102002      12.441216227105564
   175   3      6.4527538400324209      0.2032677107712885      10.302268898042641
   176   3      5.4946523483594056       6.370646686348878      11.897478076682393
   177   3     0.37579532259761234      8.1621426495441103      10.023204367166535
   178   3 -4.3599999999999992e-14      5.3207783573863692      1.3166483637921624
   179   3       8.740132197309876      0.2746606805166148      1.3166483637921624
   180   3      2.9133773991032776      0.2746606805166148      1.3166483637921624
   181   3      10.432657322409289      6.0232975134561082      3.3010724808649616
   182   3       7.519279923306013     0.97717983658635321      3.3010724808649616
   183   4   -0.052875703823811689      3.3328585628035845      6.7112658903533893
   184   4      5.8733124576108642      3.3760026619374766       6.818706674389567
   185   4      2.9133773991032776      1.6820392256232506      2.2987940834959804
   186   4 -4.3599999999999992e-14      6.7281569024930041      2.2987940834959804
   187   4      2.9304631012634825      8.4225074929771964      6.8259704953586882
   188   4       8.765813032602745      8.4152751675664401      6.7791691621806267
   189   4      5.8267547982065553      6.7281569024930041      2.2987940834959804
   190   4       8.740132197309876      1.6820392256232506      2.2987940834959804
