(written by ASE)

190 atoms
4 atom types

0.0      11.653509596413199  xlo xhi
0.0        10.0922353537395  ylo yhi
0.0                      30  zlo zhi
                      0                       0                       0  xy xz yz

Atoms # atomic

     1   1     0.84030726144431434     0.48544201265848869      5.2203845334653574
     2   1      9.5806722488778444      5.5316906100685133       5.220201730410448
     3   1      10.704060610013277      3.5755278206088295      10.388777172813468
     4   1      3.7536334898008881      5.5315858507784492      5.2202179210232496
     5   1      8.3079730426826615      2.8452033431418911      11.607025407657964
     6   1      6.6672061862215068     0.48536471524900859      5.2202806743635204
     7   1      2.7700722163350058      2.9648844245752741      10.395394908134191
     8   1      2.0672389030022065      2.1739506567059572      8.3916404881519959
     9   1      4.9677254722198141      9.1305677007371937      10.698580355546847
    10   1      3.7546337913945762      4.5604180723228787                     0.5
    11   1      5.0364558139977742     0.96790428951369178      11.625558523308214
    12   1      6.6680111904978974      9.6065357491926271                     0.5
    13   1      3.8467093026517678      7.5030070190557661      10.395276727269348
    14   1      2.8450959707179986      9.1098953946633738      11.598676492303994
    15   1     0.93213978395605845      3.6937831334801468      10.758975221862832
    16   1      5.8199961918107483      5.7472575585154155      8.3837228400788959
    17   1  -0.0038893420199725263      5.7430320271486472      8.3911752366949806
    18   1     0.98825611340948527      5.8567857142544577      11.409930522176552
    19   1      8.7357770113519635     0.69768720335083034      8.3916795051076569
    20   1      8.8106031201578183     0.99344959374976605      10.691826292515314
    21   1      2.9038388850834163      0.7022622746176338      8.3934851232833321
    22   1      10.731747772571774      1.9893045382903483       11.60504136041941
    23   1      5.8655104101605211      2.9287852088381592      10.381485141710492
    24   1      6.6656747630207986      2.8797277837324504      3.8043095294545042
    25   1     0.83891996481419984      2.8797277837324504      3.8043095294545042
    26   1      9.5790521621241194       7.925845460602198      3.8043095294545042
    27   1 -4.3599999999999992e-14      3.3640784512465056      2.4321633756321481
    28   1      2.9137466934718801       1.683237297100002      7.0545022365725485
    29   1      2.9136278178946351      4.0753232078746366      5.2205345212303929
    30   1       8.740132197309876      6.0175168859635022                     0.5
    31   1 -4.3599999999999992e-14     0.97139920909375399                     0.5
    32   1      5.8267547982065553     0.97139920909375399                     0.5
    33   1      4.9858369648660936     0.48513224947374023      5.2203423285237829
    34   1      6.7405943386352449      4.7340468952584596      10.406725505932689
    35   1      1.2286795135112307      1.8944824068672479      11.598249398493287
    36   1       8.740132197309876      9.3788974631443622      3.8043095294545042
    37   1     0.84125639229129867      9.6065357491926271                     0.5
    38   1      7.8995547037077367      5.5312084573809708      5.2200225876328323
    39   1      5.8267547982065553      3.3640784512465056      2.4321633756321481
    40   1      8.8871745997652347      9.1211696055469087      11.332680463416498
    41   1       8.740132197309876      8.4101961281162527      2.4321633756321481
    42   1      2.9133773991032776      8.4101961281162527      2.4321633756321481
    43   1      9.5813885896011737      4.5604180723228787                     0.5
    44   1      2.9133773991032776      9.3788974631443622      3.8043095294545042
    45   1      3.0073677927829205      5.7000416652689978      10.389182883373714
    46   1      7.8935201524132941      2.1771401532592431      8.3904242589707376
    47   1      10.732300268427169      8.3060987057193394       10.67134198127118
    48   1      4.9809910727174369       7.224078816959338      8.3870762524991722
    49   1      6.9663896896822326      9.1415324502515585      10.759762847549093
    50   1      10.806528391903505      7.2259619534876807      8.3883220667858698
    51   1      3.4578217593856237     0.97874235701393142      10.384763149834759
    52   1      2.0744574342890343       7.925845460602198      3.8043095294545042
    53   1      2.9133773991032785      5.0461176768697538       1.866758950346576
    54   1      5.8267547982065997                       0       1.866758950346576
    55   1  8.9999999999999983e-16                       0       1.866758950346576
    56   1      7.8988758050185357      4.5604180723228804                     0.5
    57   1      2.0721210068119365      4.5604180723228804                     0.5
    58   1      10.812253204121857      9.6065357491926289                     0.5
    59   1      2.9133773991032776      6.0175168859635022                     0.5
    60   1      10.813002604117719     0.48506796937232671      5.2202037341648699
    61   1      2.0726971316347891      5.5313590442734704      5.2202984857480734
    62   1      8.5884242670301738      5.4872185477176636      10.643480365584713
    63   1      8.7404541337031052      4.0754667735366654      5.2202334989060866
    64   1      8.7407799793313856      5.0460168312145299      6.5908676423907764
    65   1      2.9130977612595959      5.0458212917998075      6.5917496331347589
    66   1      5.8268243750334561  0.00018240090143869966      6.5919312713081473
    67   1  1.9172591556054055e-05  -6.826566913538909e-05      6.5930999518156863
    68   1      5.8269978094526298      6.7271429561435685      7.0529136984328078
    69   1      6.6708711470777278       6.788696937278484      10.403086962179335
    70   1 -0.00078460101241427426      6.7276883956804285      7.0535715531614445
    71   1      8.7401409161359744      1.6825916535463163      7.0530650033939422
    72   1      10.814589631598912      2.8797277837324491      3.8043095294545042
    73   1      7.0301613553221367      1.0987707259483015      11.608036355836667
    74   1 -4.3599999999999992e-14      4.3327797862746138      3.8043095294545042
    75   1      4.9854984059152576      9.6065357491926289                     0.5
    76   1      3.7522973639175206       7.925845460602198      3.8043095294545042
    77   1      8.7401321973098778      5.0461176768697538       1.866758950346576
    78   1      3.7631487022268248      2.1689406872288548      8.3916846150272875
    79   1      4.9986839809887718       5.708026663539175      10.584896387778107
    80   1      9.5943723074550888      2.1685941774031314      8.3922422591115016
    81   1     0.98049314771992946      8.3789817243277795      11.418198263307699
    82   1     0.85414796409930949      7.2161926708383843      8.3946662239169676
    83   1      8.1902747525465518      7.2571273184886431      11.609445012072507
    84   1      6.6797108965573182      7.2166776189199462      8.3894832158104649
    85   1  0.00025938119519897524      9.1218845583146226      5.2202514625468766
    86   1      5.8267547982065553      4.3327797862746138      3.8043095294545042
    87   1      5.8269543690914372      9.1216621365739083      5.2201338984063232
    88   1      7.9012122324956335       7.925845460602198      3.8043095294545042
    89   1      10.712150231075174      6.2880117836958016      10.753208841592963
    90   1      4.9878348333923119      2.8797277837324491      3.8043095294545042
    91   1       3.907249799704605      4.4314265336713099      11.653559454547901
    92   2      2.9133220029614479      5.0462844753116052      5.5643087562366587
    93   2      8.7400162017081069       5.046148543290661      5.5647017213510335
    94   2      5.8267547982065997                       0     0.84163042435634416
    95   2  -0.0014961661067007946      6.7278681042078761      8.0826315658820391
    96   2        8.73953519964547      1.6819073533227062      8.0856488055965539
    97   2      8.7401321973098778      5.0461176768697538     0.84163042435634416
    98   2      2.9133773991032785      5.0461176768697538     0.84163042435634416
    99   2      5.8268725002279753  0.00018558359061174583      5.5639177538946578
   100   2       8.740132197309876      8.4101961281162527      3.4593945362622507
   101   2      5.8246921445352644      6.7232865171855485      8.0742062056962709
   102   2      2.9159825003471713      1.6828910194684548      8.0630649971454034
   103   2      5.8267547982065553      3.3640784512465056      3.4593945362622507
   104   2 -4.3599999999999992e-14      3.3640784512465056      3.4593945362622507
   105   2  0.00017387703062838347 -5.2248807654803529e-05      5.5636523459358251
   106   2  8.9999999999999983e-16                       0     0.84163042435634416
   107   2      2.9133773991032776      8.4101961281162527      3.4593945362622507
   108   3      10.433918299659499      4.0671887791281804      7.9008749676404761
   109   3      2.9133773991032772      3.0917580036970467      3.3010724808649616
   110   3 -4.3599999999999992e-14      8.1378756805668004      3.3010724808649616
   111   3      5.8267547982065553      8.1378756805668004      3.3010724808649616
   112   3       4.132202971906807      2.3857284981765692      1.3166483637921624
   113   3      9.9589577701134058      2.3857284981765692      1.3166483637921624
   114   3      1.2188255728034858      7.4318461750463234      1.3166483637921624
   115   3      7.0455803710100851      7.4318461750463234      1.3166483637921624
   116   3      4.1375481141238195      9.1128194804791267      7.9107853897248992
   117   3      5.9956887231634859      7.4392589614139872      10.302723691673796
   118   3      4.8167588178275427      9.0099734170067727      11.626236442855031
   119   3      2.9169697175222509       6.998916292754525      7.9106936982301139
   120   3      4.6104649072573567      4.0710076636541643      7.9075627803364785
   121   3      7.5172011809046033      9.1139334805612719      7.9072674207589051
   122   3       1.694848139071774      9.1132082949095707      7.9032812409628024
   123   3      7.5212407543973505      7.7049779914428198      5.9193576705876465
   124   3       1.695455201203901      7.7046911800134472      5.9190112256057219
   125   3      9.0413708680508993      7.1880041811958959      11.617132022673463
   126   3       6.433099151912038      2.9417563632030705      11.153858451507929
   127   3      2.4823843850037779      4.9472424478271213      10.332560550048548
   128   3         10.751135877771      8.4064721709474455      11.627349770152524
   129   3       4.134229673107142     0.97717983658635332      3.3010724808649616
   130   3       8.740132197309876      3.0917580036970467      3.3010724808649616
   131   3      4.7173326203486017      1.7628536986246124      11.698093392366784
   132   3      2.7105223783216852      9.0991828600852553      10.674086317031428
   133   3      5.8267547982065553      5.3207783573863692      1.3166483637921624
   134   3      8.7133955166404355       5.204692120372191      11.531780813955924
   135   3      5.8261368273047562      4.7715247569807424      5.9200397816385122
   136   3      10.289572464329826      4.3678895009881655      10.289355584933235
   137   3      8.7389118565572836      6.9978617936177026        7.90962822109962
   138   3      1.6945518262997477      2.3857284981765683      1.3166483637921624
   139   3      9.9593472992454526      7.7069509493721347       5.918676965376731
   140   3      9.9609844713137417     0.97717983658635332      3.3010724808649616
   141   3      7.0476070722104192      6.0232975134561082      3.3010724808649616
   142   3      9.9607555701819148      9.1145471801960838      7.9046125591879237
   143   3      1.2204557896158306      4.0688255947947694      7.9067723211619168
   144   3      7.0481747659922434      4.0716883059034883      7.9140040871072141
   145   3      2.9130875160406737      9.8176118347532135      5.9186269150455733
   146   3      8.7386673904833145      9.8179626240056628      5.9187554590745197
   147   3      4.6093177387728543      2.6596155492399118      5.9197310831444963
   148   3      10.435003838011987      2.6587625097378864      5.9181243325309643
   149   3      4.6079292254030255      7.4318461750463234      1.3166483637921624
   150   3      1.6925251250994144     0.97717983658635321      3.3010724808649616
   151   3       10.73856516227923      1.6338005707478682      10.696587477921014
   152   3      8.9775236583082911     0.94114829004415212      11.641335817792701
   153   3      1.6533836367688697       6.488889006527919      11.651660446835496
   154   3      6.8507041909293527      4.8930331737670372      11.332265058574652
   155   3     0.95032775159339589     0.98460029626747636      11.676174591863585
   156   3      3.6454678781779593      7.2995259077957098      11.293649858535554
   157   3      7.5213066245063471      2.3857284981765683      1.3166483637921624
   158   3      2.5519280606195789      1.0030613559047226      10.341788669927222
   159   3      10.434684023609625      7.4318461750463234      1.3166483637921624
   160   3      5.8274099111964075      1.9546417718767699      7.9101331287799352
   161   3  0.00052270213910153519      1.9553707714668003      7.9062241478638953
   162   3      1.2208522740038206      6.0232975134561082      3.3010724808649616
   163   3      7.0459715232221578      2.6617107759264695      5.9205020180302297
   164   3      1.2195619413997523      2.6614819619079206      5.9187868753715325
   165   3      4.1334122820242518      7.7072997124415838      5.9203769079319724
   166   3      4.6059025242026905      6.0232975134561082      3.3010724808649616
   167   3      6.9162458940983047      8.7719669014549861      11.667361872853043
   168   3      1.2394409972218654      3.8485212748259507      11.639721256659005
   169   3       8.913892697634715      9.1228526006658033      10.352926461485733
   170   3      9.1458074343647784       3.179681599495249      11.651043145400283
   171   3 -0.00054097890045094982      4.7717373258596751      5.9185146080878912
   172   3       3.645897198628679      2.9578321699500369      10.245981948684937
   173   3      10.790997105845738      5.9236799821197375      11.617372280942757
   174   3      4.7182678194767078      4.0865507574354183      11.693467726530038
   175   3      6.8185984398392341     0.98152763086870454      10.658870567959184
   176   3      5.1369315036076495      5.9806997255414194      11.484467083563757
   177   3     0.96211271756474959      8.0734291813042027      10.487663544747674
   178   3 -4.3599999999999992e-14      5.3207783573863692      1.3166483637921624
   179   3       8.740132197309876      0.2746606805166148      1.3166483637921624
   180   3      2.9133773991032776      0.2746606805166148      1.3166483637921624
   181   3      10.432657322409289      6.0232975134561082      3.3010724808649616
   182   3       7.519279923306013     0.97717983658635321      3.3010724808649616
   183   4  -0.0020761098769884732       3.363864435155079      6.9218645516072277
   184   4      5.8222892757843718      3.3637033247270129      6.9119787930142671
   185   4      2.9133773991032776      1.6820392256232506      2.2987940834959804
   186   4 -4.3599999999999992e-14      6.7281569024930041      2.2987940834959804
   187   4      2.9063916054362355      8.4138331774535917      6.9188509416114821
   188   4      8.7430676951148065      8.4127867222685655      6.9217647798527873
   189   4      5.8267547982065553      6.7281569024930041      2.2987940834959804
   190   4       8.740132197309876      1.6820392256232506      2.2987940834959804
