136
Lattice="11.6535095964132 0.0 0.0 0.0 10.0922353537395 0.0 0.0 0.0 24.290024512876798" Properties=species:S:1:pos:R:3:forces:R:3 energy=-707.6686075654947 stress="0.0016744585770618182 -2.8249396157168844e-09 -4.172900642340088e-10 -2.8249396157168844e-09 0.0016744967612873775 -7.76159492255994e-09 -4.172900642340088e-10 -7.76159492255994e-09 0.001202181326151028" free_energy=-707.6686075654947 pbc="T T F"
H        0.84125639       0.48569960       5.14501226      -0.03043787      -0.01762624       0.00722586
H        7.90121223       7.92584546       3.80430953       0.01671726       0.00984087       0.03647764
H        4.98783483       2.87972778       3.80430953       0.01670212       0.00983259       0.03648320
H       10.81458963       2.87972778       3.80430953       0.01670069       0.00983330       0.03648312
H        3.75229736       2.16638989       8.44932179       0.16967341       0.09585553      -0.22830158
H        9.57905216       2.16638989       8.44932179       0.16968795       0.09586340      -0.22829634
H        0.83891996       7.21250757       8.44932179       0.16968172       0.09585854      -0.22829968
H        6.66567476       7.21250757       8.44932179       0.16967335       0.09585491      -0.22830209
H        2.91337740       9.37889746       3.80430953       0.00016390      -0.01939409       0.03647905
H        7.90121223       2.16638989       8.44932179      -0.16785037       0.09901357      -0.22830194
H        4.98783483       7.21250757       8.44932179      -0.16786482       0.09902191      -0.22829634
H       10.81458963       7.21250757       8.44932179      -0.16786572       0.09902128      -0.22829658
H        2.91337740       1.68203923       7.07717563      -0.00000022       0.00000039       0.04127858
H        8.74013220       1.68203923       7.07717563       0.00000006       0.00000056       0.04127835
H       -0.00000000       6.72815690       7.07717563      -0.00000007       0.00000021       0.04127954
H        5.82675480       6.72815690       7.07717563      -0.00000014       0.00000028       0.04127799
H        2.07445743       2.16638989       8.44932179      -0.16785696       0.09901762      -0.22829899
H        6.66801119       0.48569960       5.14501226      -0.03044585      -0.01762943       0.00722812
H        3.75463379       5.53181728       5.14501226      -0.03044609      -0.01762949       0.00722863
H        9.58138859       5.53181728       5.14501226      -0.03043226      -0.01762254       0.00722332
H        2.91337740       0.71333789       8.44932179      -0.00182366      -0.19487202      -0.22830006
H        8.74013220       0.71333789       8.44932179      -0.00182338      -0.19487244      -0.22830003
H       -0.00000000       5.75945557       8.44932179      -0.00182330      -0.19487256      -0.22830048
H        5.82675480       5.75945557       8.44932179      -0.00182338      -0.19487250      -0.22830027
H        0.84125639       9.60653575       0.50000000       0.01606188      -0.00919158       0.28762461
H        6.66801119       9.60653575       0.50000000       0.01605342      -0.00918812       0.28762750
H        3.75463379       4.56041807       0.50000000       0.01605395      -0.00918868       0.28762726
H        9.58138859       4.56041807       0.50000000       0.01606892      -0.00919625       0.28762142
H        2.91337740       8.41019613       2.43216338      -0.00000036      -0.00000020       0.00764881
H        8.74013220       8.41019613       2.43216338       0.00000003      -0.00000039       0.00764899
H       -0.00000000       3.36407845       2.43216338      -0.00000021       0.00000010       0.00764934
H        5.82675480       3.36407845       2.43216338      -0.00000035       0.00000003       0.00764863
H        7.89887581       5.53181728       5.14501226       0.03049074      -0.01755257       0.00722879
H        8.74013220       9.37889746       3.80430953       0.00016379      -0.01939386       0.03647920
H       -0.00000000       4.33277979       3.80430953       0.00016376      -0.01939254       0.03647935
H        5.82675480       4.33277979       3.80430953       0.00016379      -0.01939272       0.03647931
H        4.98549841       9.60653575       0.50000000      -0.01599906      -0.00931621       0.28762136
H       10.81225320       9.60653575       0.50000000      -0.01599954      -0.00931567       0.28762181
H        2.07212101       4.56041807       0.50000000      -0.01599155      -0.00931272       0.28762413
H        7.89887581       4.56041807       0.50000000      -0.01598440      -0.00930846       0.28762735
H        0.00000000       0.00000000       1.86675895       0.00000012      -0.00000004      -0.02326842
H        5.82675480       0.00000000       1.86675895      -0.00000002       0.00000013      -0.02326872
H        2.91337740       5.04611768       1.86675895      -0.00000002      -0.00000021      -0.02326801
H        8.74013220       5.04611768       1.86675895      -0.00000023      -0.00000029      -0.02326729
H        0.00000000       0.00000000       6.51177121      -0.00000005       0.00000025       0.23004813
H        5.82675480       0.00000000       6.51177121      -0.00000004       0.00000013       0.23004789
H        2.91337740       5.04611768       6.51177121      -0.00000017       0.00000045       0.23004742
H        8.74013220       5.04611768       6.51177121      -0.00000014       0.00000041       0.23004795
H        8.74013220       4.07471847       5.14501226      -0.00004477       0.03517827       0.00722703
H        2.07445743       7.92584546       3.80430953       0.01670921       0.00983610       0.03648099
H        2.07212101       5.53181728       5.14501226       0.03048400      -0.01754828       0.00722580
H       10.81225320       0.48569960       5.14501226       0.03047589      -0.01754470       0.00722328
H        4.98549841       0.48569960       5.14501226       0.03047685      -0.01754443       0.00722253
H        5.82675480       0.97139921       0.50000000      -0.00006998       0.01850480       0.28762422
H       -0.00000000       0.97139921       0.50000000      -0.00006968       0.01850516       0.28762401
H        8.74013220       6.01751689       0.50000000      -0.00006936       0.01850147       0.28762538
H        2.91337740       6.01751689       0.50000000      -0.00006980       0.01850170       0.28762544
H        2.91337740       4.07471847       5.14501226      -0.00004496       0.03517797       0.00722708
H       -0.00000000       9.12083614       5.14501226      -0.00004482       0.03517773       0.00722714
H        5.82675480       9.12083614       5.14501226      -0.00004521       0.03517797       0.00722738
H        3.75229736       7.92584546       3.80430953      -0.01688117       0.00955724       0.03647821
H        9.57905216       7.92584546       3.80430953      -0.01686609       0.00954875       0.03648367
H        0.83891996       2.87972778       3.80430953      -0.01687533       0.00955572       0.03647882
H        6.66567476       2.87972778       3.80430953      -0.01688081       0.00955745       0.03647771
N        0.00000000       0.00000000       0.84163042       0.00000763       0.00000239      -0.47978967
N        2.91337740       8.41019613       3.45939454       0.00000853       0.00000088      -0.09161703
N        8.74013220       5.04611768       0.84163042      -0.00001560       0.00000375      -0.47979372
N        2.91337740       5.04611768       0.84163042       0.00000743      -0.00000009      -0.47979635
N        5.82675480       0.00000000       0.84163042       0.00001551      -0.00000029      -0.47979128
N        8.74013220       8.41019613       3.45939454      -0.00001597       0.00000377      -0.09161991
N        8.74013220       5.04611768       5.48664268      -0.00001457      -0.00000354      -0.06863373
N        2.91337740       5.04611768       5.48664268       0.00000761      -0.00000071      -0.06863594
N        5.82675480       0.00000000       5.48664268       0.00001481      -0.00000420      -0.06863273
N        0.00000000       0.00000000       5.48664268       0.00000759      -0.00000735      -0.06863086
N        5.82675480       6.72815690       8.10440679       0.00001574      -0.00000481       0.56286136
N       -0.00000000       6.72815690       8.10440679       0.00000788      -0.00000821       0.56285838
N        8.74013220       1.68203923       8.10440679      -0.00001502      -0.00000491       0.56286071
N        2.91337740       1.68203923       8.10440679       0.00000738      -0.00000174       0.56286279
N        5.82675480       3.36407845       3.45939454       0.00001602       0.00000274      -0.09161938
N       -0.00000000       3.36407845       3.45939454       0.00001158       0.00000420      -0.09162091
F        5.82675480       4.77145700       5.96166062      -0.00092501       0.14452770      -0.23690045
F       -0.00000000       4.77145700       5.96166062      -0.00092458       0.14452761      -0.23690015
F        8.74013220       9.81757467       5.96166062      -0.00092473       0.14453363      -0.23690185
F        2.91337740       9.81757467       5.96166062      -0.00092530       0.14453280      -0.23690173
F        7.04760707       4.06893784       7.94608474      -0.06752752      -0.03863880      -0.13320133
F        1.22085227       4.06893784       7.94608474      -0.06752496      -0.03863850      -0.13320088
F        9.96098447       9.11505552       7.94608474      -0.06752347      -0.03863308      -0.13319930
F        4.13422967       9.11505552       7.94608474      -0.06752687      -0.03863454      -0.13320017
F        7.04558037       7.43184618       1.31664836       0.09503132       0.05637682       0.01285001
F        1.21882557       7.43184618       1.31664836       0.09503546       0.05637732       0.01284805
F        9.95895777       2.38572850       1.31664836       0.09503427       0.05637624       0.01284736
F        4.13220297       2.38572850       1.31664836       0.09502950       0.05637381       0.01285064
F        5.82675480       8.13787568       3.30107248       0.00051798       0.03228351       0.06668074
F       -0.00000000       8.13787568       3.30107248       0.00051783       0.03228423       0.06668161
F        8.74013220       3.09175800       3.30107248       0.00051676       0.03228062       0.06667907
F        2.91337740       3.09175800       3.30107248       0.00051782       0.03228113       0.06667979
F        1.69455183       7.70650686       5.96166062      -0.12470370      -0.07306498      -0.23690176
F        7.52130662       7.70650686       5.96166062      -0.12470132      -0.07306360      -0.23690042
F        4.60792923       2.66038918       5.96166062      -0.12470460      -0.07306573      -0.23690125
F       10.43468402       2.66038918       5.96166062      -0.12470573      -0.07306579      -0.23690110
F        2.91337740       7.00047735       7.94608474       0.00030147       0.07779926      -0.13320169
F        8.74013220       7.00047735       7.94608474       0.00030151       0.07779890      -0.13320130
F       -0.00000000       1.95435967       7.94608474       0.00030246       0.07780087      -0.13320187
F        5.82675480       1.95435967       7.94608474       0.00030213       0.07780081      -0.13320208
F       10.43468402       7.43184618       1.31664836      -0.09634375       0.05411423       0.01284733
F        4.60792923       7.43184618       1.31664836      -0.09634217       0.05411454       0.01284757
F        7.52130662       2.38572850       1.31664836      -0.09633612       0.05410993       0.01285082
F        1.69455183       2.38572850       1.31664836      -0.09634006       0.05411088       0.01284787
F        7.04760707       6.02329751       3.30107248       0.02769722      -0.01658627       0.06667890
F        1.22085227       6.02329751       3.30107248       0.02769907      -0.01658609       0.06667842
F        9.96098447       0.97717984       3.30107248       0.02770163      -0.01658967       0.06668083
F        4.13422967       0.97717984       3.30107248       0.02769710      -0.01658788       0.06667872
F        4.13220297       7.70650686       5.96166062       0.12562587      -0.07146184      -0.23690036
F        9.95895777       7.70650686       5.96166062       0.12562978      -0.07146308      -0.23690253
F        1.21882557       2.66038918       5.96166062       0.12562951      -0.07146266      -0.23690095
F        7.04558037       2.66038918       5.96166062       0.12562611      -0.07146190      -0.23690027
F        1.69252513       9.11505552       7.94608474       0.06722318      -0.03915760      -0.13319963
F        7.51927992       9.11505552       7.94608474       0.06722396      -0.03915804      -0.13319990
F        4.60590252       4.06893784       7.94608474       0.06722247      -0.03916061      -0.13320088
F       10.43265732       4.06893784       7.94608474       0.06722223      -0.03916093      -0.13320088
F        1.69252513       0.97717984       3.30107248      -0.02821655      -0.01569274       0.06667940
F        7.51927992       0.97717984       3.30107248      -0.02821539      -0.01569147       0.06667904
F        4.60590252       6.02329751       3.30107248      -0.02821799      -0.01569167       0.06668051
F       10.43265732       6.02329751       3.30107248      -0.02821909      -0.01569152       0.06668009
F        2.91337740       0.27466068       1.31664836       0.00130649      -0.11048754       0.01284748
F        8.74013220       0.27466068       1.31664836       0.00130681      -0.11048867       0.01284733
F       -0.00000000       5.32077836       1.31664836       0.00130772      -0.11048846       0.01284742
F        5.82675480       5.32077836       1.31664836       0.00130762      -0.11048852       0.01284748
Si       5.82675480       3.36407845       6.94380634       0.00000604      -0.00000236       0.98117033
Si      -0.00000000       3.36407845       6.94380634       0.00000199      -0.00000145       0.98117116
Si       8.74013220       8.41019613       6.94380634      -0.00000652      -0.00001351       0.98117033
Si       2.91337740       8.41019613       6.94380634       0.00000442      -0.00001160       0.98116973
Si       5.82675480       6.72815690       2.29879408       0.00000677      -0.00000773      -0.59706609
Si      -0.00000000       6.72815690       2.29879408       0.00000348      -0.00000864      -0.59706383
Si       8.74013220       1.68203923       2.29879408      -0.00000870       0.00000283      -0.59706579
Si       2.91337740       1.68203923       2.29879408       0.00000537       0.00000107      -0.59706568
136
Lattice="11.6535095964132 0.0 0.0 0.0 10.0922353537395 0.0 0.0 0.0 24.290024512876798" Properties=species:S:1:pos:R:3:forces:R:3 energy=-707.7443228660445 stress="0.0017081898408184224 -1.1073909175727346e-08 1.0112835850313545e-09 -1.1073909175727346e-08 0.0017082203455423008 4.7990181480401565e-09 1.0112835850313545e-09 4.7990181480401565e-09 0.0018149726280397625" free_energy=-707.7443228660445 pbc="T T F"
H        0.84082157       0.48544780       5.14511548       0.00082343       0.00049202      -0.00168635
H        7.90121223       7.92584546       3.80430953       0.01687793       0.00986759       0.04507661
H        4.98783483       2.87972778       3.80430953       0.01686243       0.00985883       0.04508207
H       10.81458963       2.87972778       3.80430953       0.01686189       0.00986011       0.04508174
H        3.75472127       2.16775926       8.44606033       0.17091899       0.09658393      -0.15061964
H        9.58147628       2.16775937       8.44606041       0.17090966       0.09657923      -0.15062265
H        0.84134399       7.21387698       8.44606036       0.17090617       0.09657315      -0.15062557
H        6.66809867       7.21387693       8.44606033       0.17092832       0.09659064      -0.15061674
H        2.91337740       9.37889746       3.80430953       0.00010655      -0.01954629       0.04507798
H        7.89881437       2.16780437       8.44606033      -0.16908842       0.09971725      -0.15062468
H        4.98543676       7.21392217       8.44606041      -0.16909191       0.09972250      -0.15062253
H       10.81219155       7.21392216       8.44606041      -0.16910928       0.09972747      -0.15061813
H        2.91337740       1.68203923       7.07776533       0.00000146      -0.00000035       0.27781487
H        8.74013220       1.68203923       7.07776532       0.00000010      -0.00000046       0.27781529
H       -0.00000000       6.72815691       7.07776534       0.00000047      -0.00000238       0.27781458
H        5.82675480       6.72815691       7.07776532       0.00000303      -0.00000002       0.27781499
H        2.07205948       2.16780443       8.44606037      -0.16908883       0.09971883      -0.15062447
H        6.66757625       0.48544776       5.14511552       0.00083076       0.00049858      -0.00169229
H        3.75419885       5.53156543       5.14511552       0.00083148       0.00049872      -0.00169252
H        9.58095384       5.53156553       5.14511545       0.00083202       0.00049798      -0.00169344
H        2.91335135       0.71055400       8.44606036      -0.00181436      -0.19630756      -0.15062101
H        8.74010615       0.71055400       8.44606036      -0.00181606      -0.19630721      -0.15062067
H       -0.00002605       5.75667167       8.44606035      -0.00181390      -0.19631901      -0.15061779
H        5.82672875       5.75667167       8.44606035      -0.00181430      -0.19630810      -0.15062161
H        0.84125639       9.60653575       0.50000000       0.01587669      -0.00908493       0.28929366
H        6.66801119       9.60653575       0.50000000       0.01586799      -0.00908117       0.28929647
H        3.75463379       4.56041807       0.50000000       0.01586793      -0.00908165       0.28929629
H        9.58138859       4.56041807       0.50000000       0.01588247      -0.00908892       0.28929059
H        2.91337740       8.41019613       2.43216338      -0.00000027       0.00000002       0.01215045
H        8.74013220       8.41019613       2.43216338       0.00000018      -0.00000040       0.01215158
H       -0.00000000       3.36407845       2.43216338      -0.00000017       0.00000031       0.01215140
H        5.82675480       3.36407845       2.43216338      -0.00000035       0.00000001       0.01215057
H        7.89931139       5.53156653       5.14511552      -0.00084580       0.00046899      -0.00169119
H        8.74013220       9.37889746       3.80430953       0.00010609      -0.01954629       0.04507812
H       -0.00000000       4.33277979       3.80430953       0.00010647      -0.01954509       0.04507810
H        5.82675480       4.33277979       3.80430953       0.00010646      -0.01954563       0.04507807
H        4.98549841       9.60653575       0.50000000      -0.01581333      -0.00920935       0.28929045
H       10.81225320       9.60653575       0.50000000      -0.01581381      -0.00920858       0.28929068
H        2.07212101       4.56041807       0.50000000      -0.01580523      -0.00920512       0.28929349
H        7.89887581       4.56041807       0.50000000      -0.01579837      -0.00920116       0.28929667
H        0.00000000       0.00000000       1.86675895       0.00000007       0.00000002      -0.02030274
H        5.82675480       0.00000000       1.86675895      -0.00000006       0.00000011      -0.02030232
H        2.91337740       5.04611768       1.86675895      -0.00000005      -0.00000017      -0.02030125
H        8.74013220       5.04611768       1.86675895      -0.00000012      -0.00000021      -0.02030149
H       -0.00000000       0.00000000       6.51505761       0.00000055      -0.00000049       0.04624343
H        5.82675480       0.00000000       6.51505761       0.00000233      -0.00000041       0.04622460
H        2.91337740       5.04611768       6.51505760       0.00000137      -0.00000002       0.04622519
H        8.74013220       5.04611768       6.51505761      -0.00000021       0.00000035       0.04622466
H        8.74013156       4.07522101       5.14511550       0.00001831      -0.00096113      -0.00169034
H        2.07445743       7.92584546       3.80430953       0.01686994       0.00986196       0.04508018
H        2.07255649       5.53156659       5.14511548      -0.00083829       0.00046461      -0.00168985
H       10.81268857       0.48544897       5.14511545      -0.00085087       0.00047018      -0.00169085
H        4.98593379       0.48544897       5.14511544      -0.00083096       0.00046133      -0.00168744
H        5.82675480       0.97139921       0.50000000      -0.00006989       0.01829032       0.28929346
H       -0.00000000       0.97139921       0.50000000      -0.00006962       0.01829044       0.28929337
H        8.74013220       6.01751689       0.50000000      -0.00006925       0.01828639       0.28929462
H        2.91337740       6.01751689       0.50000000      -0.00006975       0.01828633       0.28929474
H        2.91337676       4.07522101       5.14511550       0.00001741      -0.00096149      -0.00169055
H       -0.00000064       9.12133868       5.14511550       0.00001743      -0.00095898      -0.00168680
H        5.82675415       9.12133869       5.14511550       0.00001840      -0.00096178      -0.00169000
H        3.75229736       7.92584546       3.80430953      -0.01698486       0.00968325       0.04507690
H        9.57905216       7.92584546       3.80430953      -0.01696889       0.00967428       0.04508228
H        0.83891996       2.87972778       3.80430953      -0.01697890       0.00968161       0.04507766
H        6.66567476       2.87972778       3.80430953      -0.01698439       0.00968322       0.04507620
N        0.00000000       0.00000000       0.84163042       0.00000734       0.00000338      -0.48321426
N        2.91337740       8.41019613       3.45939454       0.00000947       0.00000028      -0.10321754
N        8.74013220       5.04611768       0.84163042      -0.00001554       0.00000370      -0.48321903
N        2.91337740       5.04611768       0.84163042       0.00000719       0.00000023      -0.48322183
N        5.82675480       0.00000000       0.84163042       0.00001548       0.00000044      -0.48321659
N        8.74013220       8.41019613       3.45939454      -0.00001655       0.00000400      -0.10322049
N        8.74013199       5.04611763       5.48566220      -0.00000517      -0.00000614       0.12649684
N        2.91337751       5.04611767       5.48566217      -0.00001237      -0.00000168       0.12649422
N        5.82675501      -0.00000006       5.48566221      -0.00002117       0.00000204       0.12649166
N        0.00000011      -0.00000010       5.48566224       0.00001012      -0.00000332       0.12646700
N        5.82675502       6.72815683       8.11244767      -0.00002581      -0.00000457       0.09016416
N        0.00000011       6.72815679       8.11244763       0.00001699       0.00002151       0.09016506
N        8.74013198       1.68203916       8.11244766      -0.00000601       0.00001094       0.09017129
N        2.91337750       1.68203920       8.11244769      -0.00001775       0.00000558       0.09016800
N        5.82675480       3.36407845       3.45939454       0.00001618       0.00000307      -0.10321917
N       -0.00000000       3.36407845       3.45939454       0.00001115       0.00000368      -0.10322096
F        5.82674158       4.77352168       5.95827633      -0.00087696       0.03198030      -0.11297385
F       -0.00001321       4.77352168       5.95827633      -0.00087708       0.03197958      -0.11297448
F        8.74011899       9.81963944       5.95827631      -0.00087641       0.03198304      -0.11297674
F        2.91336418       9.81963943       5.95827631      -0.00087713       0.03198524      -0.11297752
F        7.04664239       4.06838586       7.94418186      -0.00176336      -0.00067214      -0.04396077
F        1.21988763       4.06838586       7.94418187      -0.00176628      -0.00067426      -0.04396252
F        9.96001985       9.11450362       7.94418189      -0.00176908      -0.00067495      -0.04396357
F        4.13326500       9.11450360       7.94418188      -0.00176663      -0.00067459      -0.04396238
F        7.04558037       7.43184618       1.31664836       0.09676472       0.05739328       0.00682481
F        1.21882557       7.43184618       1.31664836       0.09676910       0.05739375       0.00682293
F        9.95895777       2.38572850       1.31664836       0.09676773       0.05739236       0.00682284
F        4.13220297       2.38572850       1.31664836       0.09676269       0.05739042       0.00682585
F        5.82675480       8.13787568       3.30107248       0.00045644       0.02920053       0.05678418
F       -0.00000000       8.13787568       3.30107248       0.00045651       0.02920214       0.05678594
F        8.74013220       3.09175800       3.30107248       0.00045543       0.02919755       0.05678299
F        2.91337740       3.09175800       3.30107248       0.00045670       0.02919743       0.05678266
F        1.69277034       7.70546307       5.95827631      -0.02726008      -0.01674940      -0.11297406
F        7.51952518       7.70546309       5.95827633      -0.02725597      -0.01674809      -0.11297427
F        4.60614773       2.65934538       5.95827632      -0.02725669      -0.01675020      -0.11297400
F       10.43290251       2.65934538       5.95827632      -0.02726083      -0.01675142      -0.11297534
F        2.91338171       7.00158877       7.94418186       0.00030169       0.00186844      -0.04396074
F        8.74013650       7.00158876       7.94418186       0.00030369       0.00186838      -0.04396241
F        0.00000432       1.95547111       7.94418185       0.00030082       0.00186784      -0.04396184
F        5.82675911       1.95547111       7.94418185       0.00030112       0.00186719      -0.04396169
F       10.43468402       7.43184618       1.31664836      -0.09809137       0.05510797       0.00682189
F        4.60792923       7.43184618       1.31664836      -0.09808955       0.05510792       0.00682218
F        7.52130662       2.38572850       1.31664836      -0.09808374       0.05510323       0.00682579
F        1.69455183       2.38572850       1.31664836      -0.09808666       0.05510380       0.00682326
F        7.04760707       6.02329751       3.30107248       0.02505828      -0.01499184       0.05678243
F        1.22085227       6.02329751       3.30107248       0.02505995      -0.01499155       0.05678216
F        9.96098447       0.97717984       3.30107248       0.02506213      -0.01499526       0.05678442
F        4.13422967       0.97717984       3.30107248       0.02505703      -0.01499301       0.05678210
F        4.13399763       7.70548597       5.95827633       0.02813984      -0.01523069      -0.11297552
F        9.96075248       7.70548595       5.95827630       0.02813573      -0.01522997      -0.11297299
F        1.22062028       2.65936828       5.95827632       0.02813716      -0.01523078      -0.11297415
F        7.04737503       2.65936829       5.95827633       0.02813582      -0.01523015      -0.11297448
F        1.69348546       9.11449612       7.94418189       0.00146668      -0.00119606      -0.04396243
F        7.52024027       9.11449612       7.94418188       0.00146811      -0.00119469      -0.04396264
F        4.60686285       4.06837840       7.94418187       0.00146692      -0.00119522      -0.04396291
F       10.43361764       4.06837840       7.94418187       0.00146167      -0.00119439      -0.04395928
F        1.69252513       0.97717984       3.30107248      -0.02551570      -0.01420408       0.05678323
F        7.51927992       0.97717984       3.30107248      -0.02551448      -0.01420250       0.05678222
F        4.60590252       6.02329751       3.30107248      -0.02551734      -0.01420268       0.05678424
F       10.43265732       6.02329751       3.30107248      -0.02551931      -0.01420254       0.05678442
F        2.91337740       0.27466068       1.31664836       0.00132003      -0.11249692       0.00682287
F        8.74013220       0.27466068       1.31664836       0.00132027      -0.11249745       0.00682323
F       -0.00000000       5.32077836       1.31664836       0.00132132      -0.11249829       0.00682215
F        5.82675480       5.32077836       1.31664836       0.00132108      -0.11249826       0.00682201
Si       5.82675488       3.36407842       6.95782306      -0.00000669       0.00000068       0.35265973
Si       0.00000003       3.36407843       6.95782307       0.00000582       0.00000230       0.35265925
Si       8.74013210       8.41019594       6.95782306      -0.00000576      -0.00000397       0.35266384
Si       2.91337746       8.41019596       6.95782305      -0.00000398      -0.00000336       0.35266387
Si       5.82675480       6.72815690       2.29879408       0.00000675      -0.00000770      -0.56496576
Si      -0.00000000       6.72815690       2.29879408       0.00000420      -0.00000988      -0.56496469
Si       8.74013220       1.68203923       2.29879408      -0.00000870       0.00000194      -0.56496696
Si       2.91337740       1.68203923       2.29879408       0.00000473       0.00000143      -0.56496547
136
Lattice="11.6535095964132 0.0 0.0 0.0 10.0922353537395 0.0 0.0 0.0 24.290024512876798" Properties=species:S:1:pos:R:3:forces:R:3 energy=-707.7749049463904 stress="0.002043161611292925 5.772384550942073e-09 -1.1675422802165856e-09 5.772384550942073e-09 0.0020431860670172518 -1.1951609918692473e-08 -1.1675422802165856e-09 -1.1951609918692473e-08 0.0017540701288657702" free_energy=-707.7749049463904 pbc="T T F"
H        0.84073662       0.48539896       5.14510094      -0.01254566      -0.00713893       0.02260843