144
Lattice="11.6531699554688 0.0 0.0 0.0 10.0919412160536 0.0 0.0 0.0 30.0" Properties=species:S:1:pos:R:3:forces:R:3:energies:R:1 energy=-729.4031982421875 stress="-0.0005215023411437869 -2.256117295473814e-05 2.674174538697116e-05 -2.256117295473814e-05 -0.0008120752172544599 2.690736437216401e-05 2.674174538697116e-05 2.690736437216401e-05 0.00028927181847393513" free_energy=-729.4031982421875 pbc="T T T"
H        3.75422775       4.56045641       0.50000000       0.03429461      -0.02404734       0.29449797      -3.91320682
H        8.73987747       6.01699901       0.50000000      -0.00138836       0.03777859       0.28568512      -3.91306090
H        0.83771481       2.88032553       3.80385072       0.06534740      -0.04230797       0.00019453      -3.92937446
H        8.73987747       5.04597061       1.86921226       0.01374695      -0.02312445       0.12855904      -3.85978818
H        0.00000000       0.97102840       0.50000000       0.00171152       0.04617476       0.29663444      -3.91368771
H        5.82658498       0.00000000       1.86921226      -0.02129469      -0.01607646       0.12980910      -3.86083007
H       10.50012132       7.21702325      15.08671565      -0.00820895       0.00907342      -0.00285283      -3.02099943
H        8.73987747       8.40995101       2.43343017      -0.00034778       0.03575371      -0.00414442      -3.93378139
H        4.98887017       2.88032553       3.80385072      -0.07943215      -0.05095805      -0.03377639      -3.92353654
H       11.07414621       7.51547163       8.55436137      -0.00125495      -0.00046884       0.00100409      -3.94525623
H        9.58081273       4.56045641       0.50000000       0.03710806      -0.02776790       0.29260433      -3.91329217
H        2.91329249       8.40995101       2.43343017       0.03338921      -0.00550048       0.00718703      -3.93845725
H        6.32618117       9.19884424       5.81774751       0.00003730      -0.00022595       0.00069374      -3.95817327
H        6.66429979       2.88032553       3.80385072       0.07684264       0.01917274       0.00267449      -3.92785978
H        3.35634858       0.77764958       8.61635499      -0.00055990       0.00016974       0.00149882      -3.95159841
H        9.57759228       7.92629614       3.80385072       0.05224364      -0.04564862       0.01761445      -3.92799211
H        5.82658498       0.97102840       0.50000000      -0.00491387       0.04018039       0.28973153      -3.91398072
H        4.85064422      -0.09065052       5.55585053       0.00041150      -0.00020078       0.00126010      -3.95630169
H        4.78461146       6.86484223       8.80979942      -0.00404674       0.00143219      -0.00214638      -3.91266918
H       10.81545515       2.88032553       3.80385072      -0.09543025      -0.04736304      -0.05410267      -3.91639853
H        1.92457591       1.70178134       8.47310675      -0.00033735       0.00032395       0.00066065      -3.94489765
H        6.30884407       7.59264753       8.51897072      -0.00254786      -0.00025241      -0.00054732      -3.94378185
H        5.62214089       6.51082707       7.42793349       0.00202760      -0.00782353       0.00349280      -3.90384102
H        0.02303607       6.81594316       7.18526818       0.00205895       0.00151301       0.00125092      -3.87394857
H        0.43271243      -0.41882553       6.52167826      -0.00099171      -0.00005602       0.00049379      -3.93557453
H        3.05909897       1.68346695       7.25170954      -0.00158426      -0.00194483       0.00012781      -3.88181067
H        3.43949093       2.47115610       8.65727010      -0.00045623       0.00056905      -0.00149824      -3.94977331
H        8.37847438       1.28697137       9.38799788      -0.00035843       0.00391429       0.01016660      -3.93973184
H        8.37554722       2.61375937       8.37269936       0.00183482      -0.00001594       0.00261808      -3.93212485
H        2.91329249       9.37726076       3.80385072      -0.00448006       0.08004872       0.01245407      -3.93300295
H        8.25341336       5.50951513       4.85352258       0.00033198      -0.00060547      -0.00009489      -3.94848776
H        5.82658498       3.36398041       2.43343017      -0.02073544       0.02384133      -0.00273171      -3.93521905
H        0.00000000       3.36398041       2.43343017      -0.02682803      -0.03156571       0.00897122      -3.93739986
H        2.91329249       5.04597061       1.86921226       0.02507067      -0.01084103       0.12325676      -3.85949135
H        0.08912100       9.46487671       4.88699610      -0.00187739       0.00027476      -0.00007643      -3.94471526
H        0.00000000       0.00000000       1.86921226       0.00000631       0.03105428       0.12731479      -3.86064792
H        3.50661818       5.87554640       5.80345605      -0.00111847       0.00128913       0.00051072      -3.94771147
H        7.90216266       7.92629614       3.80385072      -0.07824340       0.01681122       0.00101569      -3.92741179
H       -0.44573698       5.80417764       8.42114660      -0.00007016      -0.00010778      -0.00022922      -3.94850659
H        6.20784776       5.92024092       8.84812578      -0.00413179       0.00210109       0.00924492      -3.90544391
H        0.84093526       9.60642702       0.50000000       0.03946286      -0.01082404       0.28778014      -3.91387367
H        6.66752024       9.60642702       0.50000000       0.03158537      -0.01998292       0.28812218      -3.91332269
H        2.91329249       6.01699901       0.50000000       0.00777618       0.04187188       0.28851551      -3.91348267
H        0.43862971       0.91676669       5.52255704      -0.00223868       0.00023910       0.00191165      -3.95524335
H        3.75100730       7.92629614       3.80385072       0.09293672      -0.03816036      -0.05382342      -3.91782999
H       10.63082175       0.14923527       5.87838252      -0.00119060      -0.00008999       0.00236361      -3.94638729
H        9.84689512       1.85513071       8.72582272      -0.00008298      -0.00003018       0.00538835      -3.92051172
H       10.81223470       9.60642702       0.50000000      -0.03440949      -0.01493753       0.28700310      -3.91273165
H        2.07235723       4.56045641       0.50000000      -0.03380033      -0.02789851       0.28868362      -3.91405821
H        7.89894221       4.56045641       0.50000000      -0.03255633      -0.02103913       0.29048407      -3.91324925
H        0.97219038       6.76729840       8.53474446      -0.00088423       0.00053072       0.00322805      -3.94144773
H        8.28025827       4.11130307       5.77577894       0.00008277      -0.00029933       0.00015111      -3.96181226
H        2.07557768       7.92629614       3.80385072      -0.00918648      -0.01951690       0.02246520      -3.92644334
H        3.48030966       4.21321237       5.48839236       0.00107533       0.00146277       0.00177371      -3.95840955
H        2.31998139       4.87706599       6.48232775      -0.00067262       0.00019851      -0.00091198      -3.94092345
H        8.55463808       5.61145267       6.51119834      -0.00036513      -0.00003649       0.00000721      -3.94914865
H        6.01587512       0.61596662       6.52605950       0.00012800      -0.00067790       0.00108905      -3.94590640
H        4.98564972       9.60642702       0.50000000      -0.04019356      -0.02105661       0.29486975      -3.91394186
H        2.29240687       5.24509417       4.83684854       0.00052217      -0.00085047      -0.00181828      -3.94740033
H        9.72269596       4.96129196       5.50886671       0.00003676      -0.00027174       0.00043501      -3.95473385
H        8.73001891       1.07721224       7.75260682      -0.00033881      -0.00260706       0.00985141      -3.92395496
H        6.29392612       0.48507802       4.86678425       0.00000489       0.00040582       0.00053033      -3.94482684
H        8.73987747       9.37726076       3.80385072       0.01596033       0.07605007      -0.09781151      -3.91284537
H        0.00000000       4.33129015       3.80385072      -0.03850319       0.01972388       0.01197414      -3.92779303
H        5.82658498       4.33129015       3.80385072      -0.02501026       0.08171745      -0.06349383      -3.91536498
N        2.90175671       5.05226428       5.64265430       0.00137444      -0.00089772       0.00166528      -8.70862198
N       -0.00762220       6.72186572       8.21079302      -0.00023330       0.00062133       0.00184278      -8.72181988
N        0.00000000       0.00000000       0.84254493       0.00001020      -0.01096636      -0.66953683      -8.75197029
N        5.82658498       3.36398041       3.45975572       0.00862681       0.00206773       0.23274329      -8.67141533
N        5.73213701       6.73016087       8.43218738      -0.00215312      -0.00122175       0.00198587      -8.74661350
N        2.91329249       8.40995101       3.45975572      -0.01338592      -0.03259306       0.18373850      -8.66629887
N        8.83913809       1.70826629       8.57030287       0.00312373       0.00122005       0.00463263      -8.74359894
N        8.70477479       5.04838206       5.65352243      -0.00012964      -0.00018802      -0.00028712      -8.71247673
N       -0.01800566       0.00472636       5.69172251      -0.00177140       0.00188322       0.00289002      -8.71379662
N        8.73987747       8.40995101       3.45975572       0.01779534       0.00060342       0.26354659      -8.67473221
N        5.82658498       0.00000000       0.84254493       0.00443750       0.00203555      -0.67146927      -8.75105381
N        2.93741488       1.65612703       8.27254510      -0.00160098       0.00028174      -0.00022211      -8.70106888
N        2.91329249       5.04597061       0.84254493      -0.00692746       0.00344037      -0.67164665      -8.75187016
N        8.73987747       5.04597061       0.84254493      -0.00085576       0.00680433      -0.67092913      -8.75147057
N        5.86873308       0.02870160       5.68373606      -0.00116689      -0.00069893       0.00205487      -8.72420883
N        0.00000000       3.36398041       3.45975572       0.00858073       0.00520837       0.13782425      -8.66287804
F        7.04723057       6.02322075       3.30034594       0.18389162      -0.10109758       0.09554976      -5.14052534
F        1.69352301       2.38622444       1.31606541      -0.08650473       0.06050029      -0.08425665      -5.03958464
F        8.73987747       3.09147033       3.30034594      -0.02120261      -0.02715796      -0.05341291      -5.07354069
F        2.91329249       3.09147033       3.30034594       0.00925161       0.05400202      -0.01965001      -5.08622169
F        0.00000000       8.13744094       3.30034594       0.01520498       0.13320097       0.05994669      -5.14408112
F        7.50610554       7.91355044       6.03481882      -0.00003779       0.00092873       0.00061285      -5.08521605
F        9.96052306       0.97725014       3.30034594      -0.02695429      -0.05237927       0.00801918      -5.08031273
F        9.88131109       7.90101057      14.87166006       0.00820895      -0.00907342       0.00285283      -4.57137108
F        0.00000000       5.31949234       1.31606541       0.02559690      -0.06125832      -0.02601269      -5.04705906
F        5.62539381       1.15368291      12.92284864      -0.00554166       0.00827327       0.00364375      -4.37242985
F       10.58265493       4.17922912       8.17542796       0.00047109       0.00079453       0.00165728      -5.07764626
F        4.13393808       0.97725014       3.30034594       0.04752240       0.00361523      -0.03125399      -5.08312368
F        4.14497113       7.55956220       6.24548920      -0.00130159      -0.00004761      -0.00002295      -5.10251570
F        9.92848738       7.81930122       6.13048926      -0.00042322       0.00139816       0.00244081      -5.05246639
F        1.09025511       2.56445882       6.02447803      -0.00139296      -0.00063011       0.00078255      -5.09316921
F        1.21976947       7.43219505       1.31606541       0.05072656       0.03136329       0.00499529      -5.05131721
F        8.73987747       0.27352173       1.31606541      -0.03358655      -0.10129201      -0.04840314      -5.04484367
F        4.13306196       2.38622444       1.31606541       0.10207608       0.05761065      -0.08308354      -5.04105139
F        4.04329417       9.12532461       8.13595180      -0.00035492       0.00024620      -0.00028834      -5.06309032
F        7.05929912       3.21434717      12.97918786       0.00067988       0.00436342      -0.01227482      -4.26618385
F        1.60228494       9.20910040       7.88767585      -0.00051522       0.00033867       0.00060079      -5.07817602
F        4.69690579       3.87811027       8.32177324       0.00168025      -0.00158638       0.00302404      -5.03420877
F        4.60593938       6.02322075       3.30034594       0.02408382      -0.02535054      -0.01623821      -5.07892895
F        7.51923187       0.97725014       3.30034594      -0.18307376      -0.11923453       0.11489646      -5.14170837
F       10.34425636       2.61809056       6.31111987      -0.00129268      -0.00017409       0.00282452      -5.04912233
F        9.88097412       8.82182439       8.36310218      -0.00226852      -0.00294155       0.00455093      -5.07757568
F        7.52010799       2.38622444       1.31606541      -0.10589796       0.01794577      -0.05009374      -5.04577637
F        5.82658498       5.31949234       1.31606541       0.03569866      -0.08971652      -0.04258546      -5.04506779
F        4.39429971       1.57480534      10.76697981      -0.00214010      -0.00649166      -0.00095790      -4.27197218
F        4.40726061       3.34604547      12.77718854       0.00115421       0.01103833      -0.01662595      -4.27727222
F        7.20297146       1.41796452      10.97659989      -0.00212010      -0.01255904       0.00291920      -4.32666636
F        7.45590791       8.89585938       8.23996975      -0.00230157      -0.00301310       0.00231865      -5.07687712
F        8.61165701       6.77580257       7.87521782      -0.00150844      -0.00199878      -0.00030705      -5.06701756
F        5.78705053       4.88563623       6.36633575       0.00026999      -0.00006866       0.00282583      -5.06931353
F        4.58551129       2.80549974       6.11201728       0.00011641       0.00025477       0.00221398      -5.10951424
F        8.80023447       9.93519660       6.48499118      -0.00090058       0.00064909       0.00611585      -5.13318157
F        1.34468261       4.14779172       7.81911228       0.00016254       0.00021447      -0.00018340      -5.06262302
F        7.10734825       3.93416364       8.20057495       0.00142029      -0.00174811       0.00120869      -5.07842875
F        3.06538687       9.72543906       6.00466332      -0.00096333       0.00019696       0.00006405      -5.10045671
F        1.22064560       6.02322075       3.30034594       0.11732846      -0.06137426       0.04319717      -5.14233208
F        2.91329249       0.27352173       1.31606541      -0.00224729      -0.11115953      -0.08879396      -5.03885984
F        5.92345980       1.81217429       7.86980654       0.00102141      -0.00113580       0.00126177      -5.02983236
F        9.95964694       2.38622444       1.31606541       0.07530445       0.03968899      -0.08646691      -5.03618002
F        7.04635445       7.43219505       1.31606541       0.11497167       0.02053650      -0.05066323      -5.04620743
F       10.43252436       6.02322075       3.30034594       0.03895199       0.05030288      -0.06301406      -5.09318352
F        1.69264689       0.97725014       3.30034594      -0.02585137      -0.02376789      -0.04168725      -5.07963848
F        2.78312817       7.07100695       8.20993694      -0.00028953       0.00042748       0.00067246      -5.10725117
F       -0.12907540       4.70118158       5.98294546      -0.00098776      -0.00055042       0.00060275      -5.10231352
F        4.60681550       7.43219505       1.31606541      -0.07904026       0.04365599      -0.08887023      -5.03701162
F        5.82658498       8.13744094       3.30034594       0.02684743      -0.02621990      -0.04617736      -5.07446194
F        0.11347619       2.06364803       8.21832572       0.00017725       0.00060570       0.00190136      -5.12834787
F       10.43340048       7.43219505       1.31606541      -0.05874360       0.06093788      -0.02831826      -5.04797935
F        1.74427945       7.66302378       6.06323812      -0.00125709       0.00011969       0.00087807      -5.06250858
F        7.03718141       2.84949995       6.01568722      -0.00032872      -0.00018276       0.00053942      -5.09117413
Si       8.71075168       8.35082735       7.20958098      -0.00128132      -0.00091100       0.00249396      -8.29404831
Si       2.89566808       8.39778762       7.10834752      -0.00072526       0.00013891       0.00022826      -8.30690479
Si       5.84919829       3.36829147       7.16245532       0.00092976      -0.00090308       0.00178012      -8.30648232
Si      -0.00676989       3.37286911       7.09830113      -0.00057490       0.00017741       0.00117335      -8.30433846
Si       0.00000000       6.72796081       2.30168563      -0.17250459      -0.11256146      -0.47159785      -8.34483528
Si       8.73987747       1.68199020       2.30168563       0.23440731       0.18583964      -0.33186826      -8.35193443
Si       5.82658498       6.72796081       2.30168563      -0.24405597       0.16075230      -0.32226095      -8.35204697
Si       2.91329249       1.68199020       2.30168563      -0.02189304      -0.02691883      -0.23195270      -8.35937691
I        5.78411638       2.56002185      11.71160487       0.00021987      -0.00270712      -0.00809926       0.69700313
