LAMMPS data file via write_data, version 23 Jun 2022, timestep = 1

142 atoms
5 atom types

0 11.6531699554688 xlo xhi
0 10.0919412160536 ylo yhi
0 30 zlo zhi

Masses

1 1.008
2 14.007
3 18.998403163
4 28.085
5 126.90447

Atoms # atomic

1 1 0.8415525135371656 0.485925920940438 5.208302458887724 0 0 0
2 1 7.902162656618026 7.926296142329836 3.803850722575468 0 0 0
3 1 4.988870167750845 2.880325534303025 3.803850722575468 0 0 0
4 1 10.815455145485245 2.880325534303025 3.803850722575468 0 0 0
5 1 3.766984952052142 2.1741206569131366 8.421666274694282 0 0 0
6 1 9.593570652116142 2.1741210060168616 8.421666820310765 0 0 0
7 1 0.8536927152551053 7.2200911457599934 8.421666541837741 0 0 0
8 1 6.680277326761849 7.220090833618335 8.421666242188994 0 0 0
9 1 2.9132924888672185 9.377260755474325 3.803850722575468 0 0 0
10 1 7.8868341361889795 2.1752445897769235 8.421666242588966 0 0 0
11 1 4.973541440860882 7.221214878294649 8.421666363157094 0 0 0
12 1 10.800126194225488 7.221215139595194 8.421666603763995 0 0 0
13 1 2.9132926458170356 1.6819903291709069 7.090282753835645 0 0 0
14 1 8.73987753274287 1.6819903952705664 7.090283102354075 0 0 0
15 1 1.62027677e-07 6.727960849258344 7.090282962071667 0 0 0
16 1 5.826584952927575 6.72796081048289 7.090282714530067 0 0 0
17 1 2.060248664144634 2.175244597594912 8.421666505024803 0 0 0
18 1 6.66813741788851 0.4859259476633768 5.208302278842308 0 0 0
19 1 3.754844960433073 5.531896520191051 5.208302428903339 0 0 0
20 1 9.581429893184175 5.53189697407386 5.208302347279125 0 0 0
21 1 2.9126436039775117 0.6966056765126879 8.421666681438717 0 0 0
22 1 8.739228404939361 0.6966058257652514 8.421666630534908 0 0 0
23 1 11.652521140557123 5.742576227013435 8.421666435619882 -1 0 0
24 1 5.8259360582765956 5.742576478450502 8.421666108529001 0 0 0
25 1 0.8409352596514178 9.606427017522808 0.5 0 0 0
26 1 6.667520237385817 9.606427017522808 0.5 0 0 0
27 1 3.7542277485186357 4.560456409495997 0.5 0 0 0
28 1 9.580812726253036 4.560456409495997 0.5 0 0 0
29 1 2.9132924888672185 8.409951013377999 2.433430174058233 0 0 0
30 1 8.739877466601618 8.409951013377999 2.433430174058233 0 0 0
31 1 3.79e-14 3.363980405351189 2.433430174058233 0 0 0
32 1 5.826584977734438 3.363980405351189 2.433430174058233 0 0 0
33 1 7.8982764482709955 5.531813641136866 5.208301832692263 0 0 0
34 1 8.739877466601618 9.377260755474325 3.803850722575468 0 0 0
35 1 3.79e-14 4.331290147447514 3.803850722575468 0 0 0
36 1 5.826584977734438 4.331290147447514 3.803850722575468 0 0 0
37 1 4.985649718083021 9.60642701752281 0.5 0 0 0
38 1 10.81223469581742 9.60642701752281 0.5 0 0 0
39 1 2.07235722921584 4.560456409496 0.5 0 0 0
40 1 7.89894220695024 4.560456409496 0.5 0 0 0
41 1 9e-16 0 1.8692122630551729 0 0 0
42 1 5.8265849777344005 0 1.8692122630551729 0 0 0
43 1 2.9132924888672185 5.045970608026792 1.8692122630551729 0 0 0
44 1 8.739877466601618 5.045970608026792 1.8692122630551729 0 0 0
45 1 2.54469637e-08 10.091941103308573 6.575655335807877 0 -1 0
46 1 5.826585079482361 10.091941129804372 6.575655014727648 0 -1 0
47 1 2.913292301016979 5.045970691083197 6.5756552703092535 0 0 0
48 1 8.739877269428197 5.045970475083026 6.5756554312920175 0 0 0
49 1 8.739925322607052 4.074201940255104 5.208302233715196 0 0 0
50 1 2.075577678883626 7.926296142329836 3.803850722575468 0 0 0
51 1 2.0716921617775825 5.531813447578122 5.208302115025063 0 0 0
52 1 10.811568974466423 0.4858434578002372 5.208302097583156 0 0 0
53 1 4.984984468251783 0.4858431895731812 5.2083023093017635 0 0 0
54 1 5.826584977734438 0.9710283970615677 0.5 0 0 0
55 1 3.79e-14 0.9710283970615677 0.5 0 0 0
56 1 8.739877466601618 6.016999005088379 0.5 0 0 0
57 1 2.9132924888672185 6.016999005088379 0.5 0 0 0
58 1 2.913340540031189 4.0742015325280505 5.208302248761613 0 0 0
59 1 4.79960411628e-05 9.120172409523898 5.208302077709864 0 0 0
60 1 5.826632940863634 9.120172227273184 5.208302019693202 0 0 0
61 1 3.7510072988508103 7.926296142329836 3.803850722575468 0 0 0
62 1 9.57759227658521 7.926296142329836 3.803850722575468 0 0 0
63 1 0.8377148099836284 2.880325534303025 3.803850722575468 0 0 0
64 1 6.664299787718028 2.880325534303025 3.803850722575468 0 0 0
65 2 9e-16 0 0.8425449303043502 0 0 0
66 2 2.9132924888672185 8.409951013377999 3.459755716844063 0 0 0
67 2 8.739877466601618 5.045970608026792 0.8425449303043502 0 0 0
68 2 2.9132924888672185 5.045970608026792 0.8425449303043502 0 0 0
69 2 5.8265849777344005 0 0.8425449303043502 0 0 0
70 2 8.739877466601618 8.409951013377999 3.459755716844063 0 0 0
71 2 8.739877203272329 5.045969997164079 5.547407608818774 0 0 0
72 2 2.913292768932034 5.0459709458729 5.547407729998792 0 0 0
73 2 5.826585180293637 4.171864252e-07 5.54740766559652 0 0 0
74 2 9.445549226e-07 10.091940879354043 5.547407488297762 0 -1 0
75 2 5.826585215532182 6.727960500334371 8.12087824773159 0 0 0
76 2 9.99011021e-08 6.7279604904640715 8.120877718514366 0 0 0
77 2 8.739876149469826 1.6819899152532762 8.12087789422797 0 0 0
78 2 2.9132928596650562 1.6819903776035174 8.120877940540852 0 0 0
79 2 5.826584977734438 3.363980405351189 3.459755716844063 0 0 0
80 2 3.79e-14 3.363980405351189 3.459755716844063 0 0 0
81 3 5.827547493540225 4.7744203482567995 5.916861016354618 0 0 0
82 3 0.0009632795259079 4.774420323688639 5.916861170336529 0 0 0
83 3 8.74083982314986 9.820390451459675 5.9168609467895505 0 0 0
84 3 2.914255333051833 9.820390656206465 5.916860853774977 0 0 0
85 3 7.046549041171638 4.067202447950671 7.901224201201676 0 0 0
86 3 1.2199640734073285 4.0672024444201105 7.90122419684257 0 0 0
87 3 9.959841016966152 9.11317286608069 7.90122422631082 0 0 0
88 3 4.13325653286583 9.113173036930148 7.901224520318352 0 0 0
89 3 7.046354452200818 7.432195045134851 1.3160654148748374 0 0 0
90 3 1.2197694744664185 7.432195045134851 1.3160654148748374 0 0 0
91 3 9.959646941068 2.3862244371080585 1.3160654148748374 0 0 0
92 3 4.1330619633336 2.3862244371080585 1.3160654148748374 0 0 0
93 3 5.826584977734436 8.137440937299745 3.3003459413423974 0 0 0
94 3 3.66e-14 8.137440937299745 3.3003459413423974 0 0 0
95 3 8.739877466601618 3.0914703292729544 3.3003459413423974 0 0 0
96 3 2.913292488867218 3.0914703292729544 3.3003459413423974 0 0 0
97 3 1.6913339922525055 7.705564543970723 5.916860821334323 0 0 0
98 3 7.517919114787644 7.705564515748037 5.91686060498292 0 0 0
99 3 4.604626874834182 2.6595943875677244 5.916860814867354 0 0 0
100 3 10.43121147008134 2.659594391977389 5.9168609875075076 0 0 0
101 3 2.9123188926982575 7.001819845994092 7.901224450008878 0 0 0
102 3 8.738903657832072 7.00182004512333 7.901224475297316 0 0 0
103 3 11.652196734983113 1.9558498309164682 7.9012244680060055 -1 0 0
104 3 5.825611101426133 1.955849793865452 7.9012244401252865 0 0 0
105 3 10.433400481002455 7.43219504513485 1.3160654148748374 0 0 0
106 3 4.606815503268056 7.43219504513485 1.3160654148748374 0 0 0
107 3 7.520107992135237 2.386224437108058 1.3160654148748374 0 0 0
108 3 1.6935230144008373 2.386224437108058 1.3160654148748374 0 0 0
109 3 7.047230573497049 6.023220747403721 3.3003459413423974 0 0 0
110 3 1.220645595762649 6.023220747403721 3.3003459413423974 0 0 0
111 3 9.960523062364231 0.9772501393769296 3.3003459413423974 0 0 0
112 3 4.133938084629831 0.9772501393769296 3.3003459413423974 0 0 0
113 3 4.134287888165518 7.703897130934044 5.916860731592175 0 0 0
114 3 9.960872832077634 7.703897006207909 5.916860827214567 0 0 0
115 3 1.2209953171189345 2.6579266984664107 5.916860621447999 0 0 0
116 3 7.047580328671831 2.6579270100966017 5.916860698805933 0 0 0
117 3 1.6943022649829742 9.114859663213167 7.90122460530913 0 0 0
118 3 7.520887263654664 9.114859713071295 7.90122472935081 0 0 0
119 3 4.607594850918082 4.068889118725677 7.901224289353874 0 0 0
120 3 10.434179477054867 4.068889231848732 7.901224128160228 0 0 0
121 3 1.6926468931046077 0.9772501393769297 3.3003459413423974 0 0 0
122 3 7.519231870839008 0.9772501393769297 3.3003459413423974 0 0 0
123 3 4.605939381971826 6.023220747403721 3.3003459413423974 0 0 0
124 3 10.432524359706225 6.023220747403721 3.3003459413423974 0 0 0
125 3 2.9132924888672185 0.2735217338106973 1.3160654148748374 0 0 0
126 3 8.739877466601618 0.2735217338106973 1.3160654148748374 0 0 0
127 3 3.79e-14 5.319492341837489 1.3160654148748374 0 0 0
128 3 5.826584977734438 5.319492341837489 1.3160654148748374 0 0 0
129 4 5.826584795586671 3.363980334212024 6.920342340715063 0 0 0
130 4 3.207652417e-07 3.363980552734953 6.920342409637563 0 0 0
131 4 8.739877684039607 8.409950947081756 6.9203422459342265 0 0 0
132 4 2.9132923840722675 8.409950935237969 6.920342312852423 0 0 0
133 4 5.826584977734438 6.727960810702395 2.3016856341631255 0 0 0
134 4 3.79e-14 6.727960810702395 2.3016856341631255 0 0 0
135 4 8.739877466601618 1.6819902026756042 2.3016856341631255 0 0 0
136 4 2.9132924888672185 1.6819902026756042 2.3016856341631255 0 0 0
137 3 4.031102361203517 4.355205293778187 11.13252796305159 0 0 0
138 3 1.7160566118513716 5.3923585116432005 10.251432520405496 0 0 0
139 3 0.5124543060208113 3.020541596517135 10.6219441335858 0 0 0
140 3 2.8275004165267204 1.983388188490499 11.503039671799526 0 0 0
141 3 1.890801756098936 4.116367731957919 12.382626600258188 0 0 0
142 5 2.327671365423218 3.6250093519635374 10.656381024672667 0 0 0

Velocities

1 0 0 0
2 0 0 0
3 0 0 0
4 0 0 0
5 0 0 0
6 0 0 0
7 0 0 0
8 0 0 0
9 0 0 0
10 0 0 0
11 0 0 0
12 0 0 0
13 0 0 0
14 0 0 0
15 0 0 0
16 0 0 0
17 0 0 0
18 0 0 0
19 0 0 0
20 0 0 0
21 0 0 0
22 0 0 0
23 0 0 0
24 0 0 0
25 0 0 0
26 0 0 0
27 0 0 0
28 0 0 0
29 0 0 0
30 0 0 0
31 0 0 0
32 0 0 0
33 0 0 0
34 0 0 0
35 0 0 0
36 0 0 0
37 0 0 0
38 0 0 0
39 0 0 0
40 0 0 0
41 0 0 0
42 0 0 0
43 0 0 0
44 0 0 0
45 0 0 0
46 0 0 0
47 0 0 0
48 0 0 0
49 0 0 0
50 0 0 0
51 0 0 0
52 0 0 0
53 0 0 0
54 0 0 0
55 0 0 0
56 0 0 0
57 0 0 0
58 0 0 0
59 0 0 0
60 0 0 0
61 0 0 0
62 0 0 0
63 0 0 0
64 0 0 0
65 0 0 0
66 0 0 0
67 0 0 0
68 0 0 0
69 0 0 0
70 0 0 0
71 0 0 0
72 0 0 0
73 0 0 0
74 0 0 0
75 0 0 0
76 0 0 0
77 0 0 0
78 0 0 0
79 0 0 0
80 0 0 0
81 0 0 0
82 0 0 0
83 0 0 0
84 0 0 0
85 0 0 0
86 0 0 0
87 0 0 0
88 0 0 0
89 0 0 0
90 0 0 0
91 0 0 0
92 0 0 0
93 0 0 0
94 0 0 0
95 0 0 0
96 0 0 0
97 0 0 0
98 0 0 0
99 0 0 0
100 0 0 0
101 0 0 0
102 0 0 0
103 0 0 0
104 0 0 0
105 0 0 0
106 0 0 0
107 0 0 0
108 0 0 0
109 0 0 0
110 0 0 0
111 0 0 0
112 0 0 0
113 0 0 0
114 0 0 0
115 0 0 0
116 0 0 0
117 0 0 0
118 0 0 0
119 0 0 0
120 0 0 0
121 0 0 0
122 0 0 0
123 0 0 0
124 0 0 0
125 0 0 0
126 0 0 0
127 0 0 0
128 0 0 0
129 0 0 0
130 0 0 0
131 0 0 0
132 0 0 0
133 0 0 0
134 0 0 0
135 0 0 0
136 0 0 0
137 0 0 0
138 0 0 0
139 0 0 0
140 0 0 0
141 0 0 0
142 0 0 0
