(written by ASE)

136 atoms
5 atom types

0.0      11.653169955468799  xlo xhi
0.0        10.0919412160536  ylo yhi
0.0                      30  zlo zhi

Atoms # atomic

     1   1     0.84155251353716565     0.48592592094043802       5.208302458887724
     2   1      7.9021626566180263      7.9262961423298357      3.8038507225754681
     3   1      4.9888701677508447       2.880325534303025      3.8038507225754681
     4   1      10.815455145485245       2.880325534303025      3.8038507225754681
     5   1      3.7669849520521419      2.1741206569131366      8.4216662746942816
     6   1      9.5935706521161421      2.1741210060168616      8.4216668203107652
     7   1     0.85369271525510526      7.2200911457599934       8.421666541837741
     8   1      6.6802773267618489      7.2200908336183351      8.4216662421889943
     9   1      2.9132924888672185      9.3772607554743246      3.8038507225754681
    10   1      7.8868341361889795      2.1752445897769235      8.4216662425889659
    11   1       4.973541440860882      7.2212148782946493      8.4216663631570938
    12   1      10.800126194225488       7.221215139595194      8.4216666037639953
    13   1      2.9132926458170356      1.6819903291709069      7.0902827538356448
    14   1      8.7398775327428702      1.6819903952705664      7.0902831023540749
    15   1  1.6202767699999999e-07       6.727960849258344       7.090282962071667
    16   1      5.8265849529275746      6.7279608104828901      7.0902827145300673
    17   1       2.060248664144634       2.175244597594912      8.4216665050248025
    18   1      6.6681374178885102     0.48592594766337682      5.2083022788423081
    19   1      3.7548449604330729      5.5318965201910508      5.2083024289033393
    20   1      9.5814298931841755      5.5318969740738604      5.2083023472791252
    21   1      2.9126436039775117      0.6966056765126879      8.4216666814387171
    22   1      8.7392284049393609     0.69660582576525143      8.4216666305349079
    23   1 -0.00064881491167649997      5.7425762270134353      8.4216664356198816
    24   1      5.8259360582765956       5.742576478450502       8.421666108529001
    25   1      0.8409352596514178      9.6064270175228081                     0.5
    26   1      6.6675202373858173      9.6064270175228081                     0.5
    27   1      3.7542277485186357      4.5604564094959974                     0.5
    28   1      9.5808127262530363      4.5604564094959974                     0.5
    29   1      2.9132924888672185      8.4099510133779987      2.4334301740582331
    30   1      8.7398774666016177      8.4099510133779987      2.4334301740582331
    31   1  3.7900000000000001e-14      3.3639804053511888      2.4334301740582331
    32   1      5.8265849777344378      3.3639804053511888      2.4334301740582331
    33   1      7.8982764482709955      5.5318136411368659      5.2083018326922632
    34   1      8.7398774666016177      9.3772607554743246      3.8038507225754681
    35   1  3.7900000000000001e-14      4.3312901474475138      3.8038507225754681
    36   1      5.8265849777344378      4.3312901474475138      3.8038507225754681
    37   1       4.985649718083021      9.6064270175228099                     0.5
    38   1       10.81223469581742      9.6064270175228099                     0.5
    39   1      2.0723572292158399      4.5604564094960001                     0.5
    40   1        7.89894220695024      4.5604564094960001                     0.5
    41   1  9.0000000000000003e-16                       0      1.8692122630551729
    42   1      5.8265849777344005                       0      1.8692122630551729
    43   1      2.9132924888672185      5.0459706080267921      1.8692122630551729
    44   1      8.7398774666016177      5.0459706080267921      1.8692122630551729
    45   1          2.54469637e-08 -1.1274502819999999e-07      6.5756553358078769
    46   1      5.8265850794823608 -8.6249227599999993e-08      6.5756550147276478
    47   1      2.9132923010169791      5.0459706910831974      6.5756552703092535
    48   1       8.739877269428197      5.0459704750830259      6.5756554312920175
    49   1      8.7399253226070517      4.0742019402551044      5.2083022337151963
    50   1      2.0755776788836262      7.9262961423298357      3.8038507225754681
    51   1      2.0716921617775825      5.5318134475781218       5.208302115025063
    52   1      10.811568974466423     0.48584345780023719      5.2083020975831564
    53   1       4.984984468251783     0.48584318957318118      5.2083023093017635
    54   1      5.8265849777344378     0.97102839706156774                     0.5
    55   1  3.7900000000000001e-14     0.97102839706156774                     0.5
    56   1      8.7398774666016177      6.0169990050883788                     0.5
    57   1      2.9132924888672185      6.0169990050883788                     0.5
    58   1      2.9133405400311889      4.0742015325280505      5.2083022487616129
    59   1  4.7996041162800002e-05      9.1201724095238976      5.2083020777098641
    60   1      5.8266329408636341      9.1201722272731836      5.2083020196932024
    61   1      3.7510072988508103      7.9262961423298357      3.8038507225754681
    62   1      9.5775922765852108      7.9262961423298357      3.8038507225754681
    63   1     0.83771480998362835       2.880325534303025      3.8038507225754681
    64   1      6.6642997877180283       2.880325534303025      3.8038507225754681
    65   2  9.0000000000000003e-16                       0     0.84254493030435018
    66   2      2.9132924888672185      8.4099510133779987      3.4597557168440631
    67   2      8.7398774666016177      5.0459706080267921     0.84254493030435018
    68   2      2.9132924888672185      5.0459706080267921     0.84254493030435018
    69   2      5.8265849777344005                       0     0.84254493030435018
    70   2      8.7398774666016177      8.4099510133779987      3.4597557168440631
    71   2      8.7398772032723286      5.0459699971640788      5.5474076088187738
    72   2      2.9132927689320338      5.0459709458728996      5.5474077299987918
    73   2      5.8265851802936366  4.1718642519999998e-07      5.5474076655965199
    74   2  9.4455492260000001e-07 -3.3669955749999997e-07       5.547407488297762
    75   2       5.826585215532182      6.7279605003343708      8.1208782477315893
    76   2  9.9901102099999997e-08      6.7279604904640715      8.1208777185143664
    77   2      8.7398761494698256      1.6819899152532762        8.12087789422797
    78   2      2.9132928596650562      1.6819903776035174      8.1208779405408524
    79   2      5.8265849777344378      3.3639804053511888      3.4597557168440631
    80   2  3.7900000000000001e-14      3.3639804053511888      3.4597557168440631
    81   3      5.8275474935402247      4.7744203482567995       5.916861016354618
    82   3  0.00096327952590789996      4.7744203236886387      5.9168611703365288
    83   3      8.7408398231498605      9.8203904514596747      5.9168609467895505
    84   3       2.914255333051833      9.8203906562064649      5.9168608537749767
    85   3      7.0465490411716383      4.0672024479506712      7.9012242012016758
    86   3      1.2199640734073285      4.0672024444201105      7.9012241968425698
    87   3       9.959841016966152      9.1131728660806903      7.9012242263108199
    88   3      4.1332565328658299      9.1131730369301476       7.901224520318352
    89   3      7.0463544522008181      7.4321950451348506      1.3160654148748374
    90   3      1.2197694744664185      7.4321950451348506      1.3160654148748374
    91   3      9.9596469410679997      2.3862244371080585      1.3160654148748374
    92   3      4.1330619633336001      2.3862244371080585      1.3160654148748374
    93   3      5.8265849777344361      8.1374409372997452      3.3003459413423974
    94   3  3.6600000000000003e-14      8.1374409372997452      3.3003459413423974
    95   3      8.7398774666016177      3.0914703292729544      3.3003459413423974
    96   3       2.913292488867218      3.0914703292729544      3.3003459413423974
    97   3      1.6913339922525055      7.7055645439707234       5.916860821334323
    98   3      7.5179191147876443       7.705564515748037      5.9168606049829204
    99   3      4.6046268748341816      2.6595943875677244      5.9168608148673538
   100   3       10.43121147008134       2.659594391977389      5.9168609875075076
   101   3      2.9123188926982575      7.0018198459940919      7.9012244500088782
   102   3       8.738903657832072      7.0018200451233303      7.9012244752973162
   103   3 -0.00097322048568740003      1.9558498309164682      7.9012244680060055
   104   3      5.8256111014261327       1.955849793865452      7.9012244401252865
   105   3      10.433400481002455      7.4321950451348497      1.3160654148748374
   106   3      4.6068155032680558      7.4321950451348497      1.3160654148748374
   107   3      7.5201079921352374      2.3862244371080581      1.3160654148748374
   108   3      1.6935230144008373      2.3862244371080581      1.3160654148748374
   109   3      7.0472305734970488      6.0232207474037214      3.3003459413423974
   110   3       1.220645595762649      6.0232207474037214      3.3003459413423974
   111   3      9.9605230623642314     0.97725013937692962      3.3003459413423974
   112   3      4.1339380846298308     0.97725013937692962      3.3003459413423974
   113   3      4.1342878881655176      7.7038971309340436      5.9168607315921751
   114   3      9.9608728320776336      7.7038970062079093      5.9168608272145669
   115   3      1.2209953171189345      2.6579266984664107      5.9168606214479986
   116   3       7.047580328671831      2.6579270100966017      5.9168606988059329
   117   3      1.6943022649829742      9.1148596632131671        7.90122460530913
   118   3      7.5208872636546644      9.1148597130712954        7.90122472935081
   119   3      4.6075948509180824      4.0688891187256768      7.9012242893538742
   120   3      10.434179477054867      4.0688892318487317      7.9012241281602282
   121   3      1.6926468931046077     0.97725013937692973      3.3003459413423974
   122   3      7.5192318708390076     0.97725013937692973      3.3003459413423974
   123   3       4.605939381971826      6.0232207474037214      3.3003459413423974
   124   3      10.432524359706225      6.0232207474037214      3.3003459413423974
   125   3      2.9132924888672185     0.27352173381069728      1.3160654148748374
   126   3      8.7398774666016177     0.27352173381069728      1.3160654148748374
   127   3  3.7900000000000001e-14      5.3194923418374893      1.3160654148748374
   128   3      5.8265849777344378      5.3194923418374893      1.3160654148748374
   129   4      5.8265847955866708       3.363980334212024       6.920342340715063
   130   4  3.2076524170000002e-07      3.3639805527349531      6.9203424096375628
   131   4      8.7398776840396071      8.4099509470817555      6.9203422459342265
   132   4      2.9132923840722675      8.4099509352379691      6.9203423128524229
   133   4      5.8265849777344378      6.7279608107023954      2.3016856341631255
   134   4  3.7900000000000001e-14      6.7279608107023954      2.3016856341631255
   135   4      8.7398774666016177      1.6819902026756042      2.3016856341631255
   136   4      2.9132924888672185      1.6819902026756042      2.3016856341631255
