190
Lattice="11.6535095964132 0.0 0.0 0.0 10.0922353537395 0.0 0.0 0.0 30.0" Properties=species:S:1:pos:R:3:forces:R:3 energy=-895.1092654450658 stress="-0.02855616376163768 -0.0020517891799224724 0.0024663152028375507 -0.0020517891799224724 -0.03072081734016032 -0.00015408058919342283 0.0024663152028375507 -0.00015408058919342283 -0.013533970576890694" free_energy=-895.1092654450658 pbc="T T F"
H        0.84010317       0.48530047       5.22042191       0.01428626       0.00990770      -0.00261630
H        9.58023502       5.53141831       5.22042169       0.03060582       0.01906087      -0.01539734
H       10.70949800       3.58199700      10.39016400      -0.38061730      -0.45284256      -0.09707790
H        3.75348038       5.53141824       5.22042185       0.01071794       0.01173258      -0.01427488
H        8.31219200       2.83718000      11.60447200      -0.29532701       0.56163402       0.17873854
H        6.66685778       0.48530052       5.22042173       0.02438832       0.00449342      -0.00987368
H        2.76226700       2.96228400      10.39590100       0.54636514       0.18202972      -0.03542643
H        2.06392381       2.17859524       8.39087690       0.23205647      -0.32512116       0.05345111
H        4.96602000       9.13231700      10.69497700       0.11938306      -0.12245095       0.25223489
H        3.75463379       4.56041807       0.50000000       0.01614962      -0.00944921       0.29324557
H        5.03325000       0.97081500      11.61629600       0.22440698      -0.20374973       0.64837663
H        6.66801119       9.60653575       0.50000000       0.01648351      -0.00946488       0.29311437
H        3.85299400       7.50047200      10.39485000      -0.43992881       0.17745133       0.02987091
H        2.83753000       9.11624100      11.60359400       0.52961795      -0.44419237      -0.34422554
H        0.93592600       3.68643000      10.75831800      -0.26503512       0.51471934       0.04600553
H        5.82145161       5.74423048       8.39087706      -0.10187901       0.21189566      -0.50079512
H       -0.00530348       5.74423046       8.39087706       0.09898981      -0.08389062       0.02087242
H        0.99582500       5.86179200      11.40097500      -0.52982206      -0.35044000       0.62688655
H        8.73482898       0.69811240       8.39087679       0.06636187      -0.02976365       0.05618984
H        8.80460500       0.99733700      10.69032200       0.41986841      -0.27211844       0.10530048
H        2.90807423       0.69811277       8.39087690      -0.29647416       0.29046501       0.18257565
H       10.73776500       1.99134000      11.60134600      -0.42120592      -0.14248232       0.25867523
H        5.86357900       2.93390900      10.37939900       0.13519871      -0.35866538       0.14602992
H        6.66567476       2.87972778       3.80430953      -0.02109366       0.01045299       0.01147707
H        0.83891996       2.87972778       3.80430953      -0.02229449       0.01081188       0.02561359
H        9.57905216       7.92584546       3.80430953      -0.01142774       0.01045908       0.02612949
H       -0.00000000       3.36407845       2.43216338       0.00131583      -0.00098144       0.01095864
H        2.91337741       1.68203902       7.05511206       0.02584968       0.08387910      -0.04268731
H        2.91360832       4.07591698       5.22042172       0.00136452      -0.04156380       0.00789642
H        8.74013220       6.01751689       0.50000000      -0.00009267       0.01892659       0.29336559
H       -0.00000000       0.97139921       0.50000000       0.00016661       0.01963446       0.29356863
H        5.82675480       0.97139921       0.50000000      -0.00016305       0.01899646       0.29287903
H        4.98642066       0.48490030       5.22042215      -0.04085854       0.01623643      -0.00558764
H        6.74036200       4.73886000      10.41249200       0.01626370      -0.33691733      -0.40365458
H        1.22810800       1.89237700      11.59094700       0.04000595       0.14737848       0.51116789
H        8.74013220       9.37889746       3.80430953       0.00302375      -0.01906050       0.02558959
H        0.84125639       9.60653575       0.50000000       0.01639960      -0.00937995       0.29311951
H        7.89979792       5.53101810       5.22042208      -0.01702524       0.01332496      -0.02796421
H        5.82675480       3.36407845       2.43216338      -0.00011648      -0.00292779       0.00297935
H        8.88230800       9.11807400      11.32823500       0.34066198       0.21669239       0.31118244
H        8.74013220       8.41019613       2.43216338       0.00111569       0.00135768       0.00728459
H        2.91337740       8.41019613       2.43216338      -0.00169341       0.00180526       0.00704451
H        9.58138859       4.56041807       0.50000000       0.01719418      -0.00996588       0.29384430
H        2.91337740       9.37889746       3.80430953      -0.00334459      -0.02379949       0.02591424
H        3.01138600       5.68866400      10.38346300      -0.28127451       0.79643657       0.40039184
H        7.89067864       2.17859490       8.39087686       0.19890589      -0.10183220      -0.03168242
H       10.72842200       8.29767000      10.66888300       0.27147879       0.59000940       0.17212869
H        4.97730100       7.22471301       8.39087671       0.25830510      -0.04439333      -0.26603223
H        6.96353600       9.13675300      10.76709300       0.19975828       0.33456152      -0.51311067
H       10.80405584       7.22471301       8.39087695       0.17307835       0.08742570      -0.17884166
H        3.46345800       0.97042500      10.37963700      -0.39453684       0.58221499       0.35883049
H        2.07445743       7.92584546       3.80430953       0.01745981       0.01164139       0.02820217
H        2.91337740       5.04611768       1.86675895      -0.00034980       0.00003868      -0.00907207
H        5.82675480       0.00000000       1.86675895      -0.00022121      -0.00041492      -0.00991199
H        0.00000000       0.00000000       1.86675895       0.00014100       0.00050385      -0.00573860
H        7.89887581       4.56041807       0.50000000      -0.01624282      -0.00937437       0.29324000
H        2.07212101       4.56041807       0.50000000      -0.01708897      -0.01002936       0.29383005
H       10.81225320       9.60653575       0.50000000      -0.01635239      -0.00966682       0.29292502
H        2.91337740       6.01751689       0.50000000       0.00000493       0.01880273       0.29334810
H       10.81317523       0.48490056       5.22042213      -0.01208402       0.01171867      -0.01528768
H        2.07304325       5.53101823       5.22042168      -0.02422855       0.02385714      -0.00862382
H        8.58072100       5.48849100      10.63921300       0.53922869      -0.08907166       0.29871559
H        8.74036313       4.07591699       5.22042186       0.00637003      -0.03151508      -0.01318557
H        8.74013214       5.04611764       6.59340333       0.04534844      -0.00705693      -0.17749842
H        2.91337724       5.04611765       6.59340299      -0.01956325      -0.02074531      -0.11573507
H        5.82675489       0.00000039       6.59340359       0.00486394       0.01274100      -0.10306203
H        0.00000032      -0.00000041       6.59340334       0.00131991      -0.00475021      -0.02123721
H        5.82675478       6.72815647       7.05511192       0.01701216      -0.07094610      -0.15387554
H        6.66972200       6.80001800      10.39255500       0.08044030      -0.79247439       0.73723735
H        0.00000012       6.72815681       7.05511187      -0.05493046      -0.03278929      -0.10782238
H        8.74013192       1.68203909       7.05511179       0.00062951       0.03867974      -0.14327479
H       10.81458963       2.87972778       3.80430953       0.01856622       0.00869003       0.02897441
H        7.02746400       1.09379800      11.60253500       0.18881487       0.34809082       0.38509491
H       -0.00000000       4.33277979       3.80430953       0.00056590      -0.02123997       0.02975006
H        4.98549841       9.60653575       0.50000000      -0.01653084      -0.00934692       0.29325366
H        3.75229736       7.92584546       3.80430953      -0.02267797       0.01127698       0.02529803
H        8.74013220       5.04611768       1.86675895       0.00047517      -0.00010683      -0.00803755
H        3.76813476       2.16940961       8.39087674      -0.34902379      -0.03282436       0.05655113
H        5.00189900       5.71228000      10.57560400      -0.22505133      -0.29773355       0.65046714
H        9.59488933       2.16940959       8.39087678      -0.03619188      -0.05707878       0.09558339
H        0.98882100       8.37765200      11.41790900      -0.58294966       0.09308070       0.02024843
H        0.85475718       7.21552748       8.39087687      -0.04264509       0.04656328       0.26525506
H        8.19048100       7.26234300      11.60566500      -0.01443732      -0.36509771       0.26460085
H        6.68151174       7.21552741       8.39087669      -0.12605936       0.08051496      -0.09754341
H        0.00023087       9.12203478       5.22042157       0.00199596      -0.01051566      -0.01190769
H        5.82675480       4.33277979       3.80430953       0.00003263      -0.02802966       0.01989678
H        5.82698565       9.12203458       5.22042210      -0.00218935      -0.02607129      -0.02017443
H        7.90121223       7.92584546       3.80430953       0.01789731       0.01101425       0.02205249
H       10.71129400       6.29989900      10.74075400       0.05993618      -0.83210514       0.87183891
H        4.98783483       2.87972778       3.80430953       0.02364007       0.01201445       0.01661617
H        3.90855100       4.43208400      11.65316000      -0.09108402      -0.04602264       0.02796182
N        2.91337733       5.04611769       5.56349445      -0.00387298       0.01167481       0.05700131
N        8.74013190       5.04611792       5.56349390      -0.00809863       0.00214355       0.08454782
N        5.82675480       0.00000000       0.84163042       0.00020839      -0.00013732      -0.48960542
N        0.00000017       6.72815671       8.08417416      -0.10474371      -0.02020233      -0.10798193
N        8.74013166       1.68203921       8.08417431      -0.04175206      -0.00922993       0.10321460
N        8.74013220       5.04611768       0.84163042      -0.00095975       0.00047397      -0.49187468
N        2.91337740       5.04611768       0.84163042       0.00106994       0.00003844      -0.49040388
N        5.82675453       0.00000007       5.56349398       0.00825763       0.01298609       0.02966394
N        8.74013220       8.41019613       3.45939454      -0.00015383       0.00329681      -0.12181732
N        5.82675520       6.72815675       8.08417432      -0.14441364      -0.34091600      -0.69776813
N        2.91337757       1.68203887       8.08417433       0.18234481       0.05965032      -1.47765313
N        5.82675480       3.36407845       3.45939454      -0.00115137       0.00115120      -0.12789315
N       -0.00000000       3.36407845       3.45939454       0.00225747       0.00041515      -0.13322552
N        0.00000002      -0.00000054       5.56349447       0.01217012      -0.00361945       0.01105103
N        0.00000000       0.00000000       0.84163042      -0.00012154      -0.00026596      -0.49196261
N        2.91337740       8.41019613       3.45939454      -0.00074242      -0.00170274      -0.12544263
F       10.43203580       4.06905625       7.90604805       0.13177488      -0.13072329      -0.36211548
F        2.91337740       3.09175800       3.30107248       0.00283594       0.05962475       0.07543313
F       -0.00000000       8.13787568       3.30107248       0.00026303       0.05235392       0.06799504
F        5.82675480       8.13787568       3.30107248       0.00061727       0.06074834       0.07733992
F        4.13220297       2.38572850       1.31664836       0.09972041       0.05841573      -0.00847319
F        9.95895777       2.38572850       1.31664836       0.09904868       0.05924402      -0.01100436
F        1.21882557       7.43184618       1.31664836       0.09941316       0.05922847      -0.01078218
F        7.04558037       7.43184618       1.31664836       0.09947507       0.05962869      -0.00820994
F        4.13464301       9.11553436       7.90604764       0.20335704      -0.19004150       0.33164278
F        5.98364200       7.44106800      10.37332700       0.84327062      -0.12663270      -4.94223158
F        4.83000700       8.94318400      11.60478500      -0.92737275       4.67525919       1.50160100
F        2.91358552       6.99988010       7.90604809       0.23689379      -0.06746663       0.32519223
F        4.60528101       4.06905627       7.90604750       0.36287285       0.13659759       0.10606939
F        7.51865835       9.11517431       7.90604767      -0.10200196      -0.08685796       0.08538257
F        1.69190374       9.11517396       7.90604763       0.20610808      -0.13759628      -0.19364690
F        7.52130267       7.70513721       5.91833689      -0.00433388      -0.01114549       0.07145449
F        1.69454803       7.70513695       5.91833681       0.06350192      -0.03120365       0.04720941
F        9.12324900       7.15295900      11.60601700      -5.73146924       2.45316268       0.77805159
F        6.36262400       2.93068600      11.17499000       4.93326063       0.77492542      -1.47920839
F        2.44828300       4.93704200      10.38387900       2.38709695       0.71403135      -3.59229150
F       10.71355700       8.36519100      11.60549400       2.63052144       2.88968197       1.52990391
F        4.13422967       0.97717984       3.30107248       0.05380701      -0.02806039       0.07752985
F        8.74013220       3.09175800       3.30107248      -0.00182003       0.06132197       0.07807065
F        4.73746800       1.86194600      11.63679200      -1.40947658      -6.93646110       4.29109747
F        2.69626700       9.10712200      10.67516400       0.99787648      -0.55573979      -0.07543781
F        5.82675480       5.32077836       1.31664836       0.00096604      -0.11570948      -0.00798901
F        8.77972400       5.18606000      11.50579000      -4.64299384       1.30424843       1.81935698
F        5.82557051       4.77214535       5.91833688       0.03964208      -0.04344125       0.11920342
F       10.23352200       4.39159400      10.38572200       3.92353250      -1.65931493      -6.74564905
F        8.74034012       6.99988035       7.90604804      -0.09997839      -0.14129865       0.25061300
F        1.69455183       2.38572850       1.31664836      -0.10091830       0.05675831      -0.00877471
F        9.96014574       7.70718858       5.91833689      -0.05589066      -0.01663441       0.02380549
F        9.96098447       0.97717984       3.30107248       0.04400135      -0.02828992       0.06590858
F        7.04760707       6.02329751       3.30107248       0.05207918      -0.03195278       0.07812720
F        9.96139746       9.11553447       7.90604784      -0.04493224      -0.06911014      -0.10046965
F        1.22126558       4.06941677       7.90604778      -0.05668510      -0.04138257       0.05071776
F        7.04802029       4.06941664       7.90604774       0.01081348       0.15901653       0.55694402
F        2.91219333       9.81826296       5.91833698       0.06259270      -0.04557895       0.02029573
F        8.73894783       9.81826321       5.91833695      -0.01963087      -0.02104077       0.02929561
F        4.60792538       2.65901937       5.91833647       0.09746503       0.04173268       0.09762276
F       10.43468007       2.65901931       5.91833699       0.02266404      -0.01797631      -0.01488611
F        4.60792923       7.43184618       1.31664836      -0.09989081       0.05598815      -0.00845540
F        1.69252513       0.97717984       3.30107248      -0.04426499      -0.02651772       0.06530242
F       10.70661000       1.61344900      10.74213200       2.23686136       1.42460995      -3.18811655
F        9.02160100       0.96802400      11.60359900      -3.08541392      -1.88129970       2.64157725
F        1.65292700       6.50075100      11.60583800       0.03196457      -0.83033954       3.20757128
F        6.81191800       4.87212200      11.33939200       2.71503337       1.46378216      -0.49888590
F        0.97150900       0.98982000      11.63057300      -1.48268739      -0.36537926       3.19211143
F        3.68556100       7.33102100      11.30329600      -2.80651853      -2.20465645      -0.67522990
F        7.52130662       2.38572850       1.31664836      -0.10110124       0.05632571      -0.01048986
F        2.52434600       0.97782800      10.37371000       1.93074424       1.76633491      -2.23449311
F       10.43468402       7.43184618       1.31664836      -0.10251584       0.05768852      -0.00985958
F        5.82696258       1.95376225       7.90604766       0.03131323       0.06156686       0.28598253
F        0.00020817       1.95376246       7.90604794       0.02201726       0.11258169       0.01233468
F        1.22085227       6.02329751       3.30107248       0.05044559      -0.02710307       0.07190832
F        7.04676872       2.66107078       5.91833685      -0.05580396       0.04479942       0.15156142
F        1.22001379       2.66107108       5.91833693      -0.03162974       0.02876199       0.03149616
F        4.13339118       7.70718835       5.91833688       0.00147686       0.00779567       0.14280214
F        4.60590252       6.02329751       3.30107248      -0.05242400      -0.03121544       0.07836078
F        6.85097300       8.74734600      11.61427200       4.56910259       1.72346310       3.71629110
F        1.26713500       3.89172400      11.61282200      -1.93858019      -3.02419076       1.88294797
F        8.92583900       9.11333700      10.39009700      -0.83624117       0.66609205      -2.60193770
F        9.16648100       3.22725800      11.61156500      -1.44714959      -3.33034804       2.76347018
F       -0.00118473       4.77214554       5.91833741       0.04506260      -0.02857496       0.01240414
F        3.69877100       2.95418800      10.32578800      -3.70116610       0.25509190      -5.58642359
F       10.69989900       5.91343600      11.59663800       6.37686741       0.71707875       1.45139967
F        4.75816000       4.03238900      11.63243700      -2.79245264       3.79132302       4.27215086
F        6.80487300       1.03339200      10.69213600       0.96078079      -3.63050584      -2.32858024
F        5.15464400       5.98413700      11.46148400      -1.23987475      -0.24060921       1.60881585
F        0.99929400       8.05817400      10.53482100      -2.60268977       1.06786269      -3.30102187
F       -0.00000000       5.32077836       1.31664836       0.00159555      -0.11562857      -0.00995473
F        8.74013220       0.27466068       1.31664836       0.00060986      -0.11683310      -0.01059412
F        2.91337740       0.27466068       1.31664836       0.00233725      -0.11556294      -0.00946165
F       10.43265732       6.02329751       3.30107248      -0.05162221      -0.02895900       0.07513271
F        7.51927992       0.97717984       3.30107248      -0.05454951      -0.03041118       0.08004087
Si       0.00000007       3.36407850       6.92636021      -0.14533240      -0.01498483      -0.31469604
Si       5.82675480       3.36407841       6.92635983      -0.31258672      -0.02625570      -1.00667260
Si       2.91337740       1.68203923       2.29879408      -0.00741784      -0.00164504      -0.49573659
Si      -0.00000000       6.72815690       2.29879408       0.00101886       0.00292876      -0.49114638
Si       2.91337758       8.41019622       6.92635995      -0.48901792       0.25458710      -0.52563072
Si       8.74013198       8.41019653       6.92636005       0.20549989       0.18131311      -0.32166867
Si       5.82675480       6.72815690       2.29879408       0.00063827       0.00006616      -0.50691255
Si       8.74013220       1.68203923       2.29879408       0.00890118       0.00014194      -0.49487911
190
Lattice="11.6535095964132 0.0 0.0 0.0 10.0922353537395 0.0 0.0 0.0 30.0" Properties=species:S:1:pos:R:3:forces:R:3 energy=-901.5298851023406 stress="-0.026693926609818494 -0.0011003702339290838 0.0018508909026019027 -0.0011003702339290838 -0.02594693477355503 0.00016957397404631814 0.0018508909026019027 0.00016957397404631814 -0.00741640160766791" free_energy=-901.5298851023406 pbc="T T F"
H        0.84030726       0.48544201       5.22038453       0.00534527       0.01003131       0.00740943
H        9.58067225       5.53169061       5.22020173       0.00102929      -0.00218814       0.00826576
H       10.70406061       3.57552782      10.38877717       0.76974519      -2.79868700       0.29578284
H        3.75363349       5.53158585       5.22021792      -0.00972282       0.00693432       0.00504039
H        8.30797304       2.84520334      11.60702541      -2.49969906      -0.43472888      -0.04838660
H        6.66720619       0.48536472       5.22028067       0.00824440      -0.00567922      -0.00212120
H        2.77007222       2.96488442      10.39539491      -2.88110386       0.21238367       0.58588945
H        2.06723890       2.17395066       8.39164049       0.31542554      -0.29820349      -0.09379015
H        4.96772547       9.13056770      10.69858036       0.01712018      -0.19563049       0.88294294
H        3.75463379       4.56041807       0.50000000       0.01584811      -0.00916181       0.29268959
H        5.03645581       0.96790429      11.62555852       2.41649300      -6.15710715       0.01615068
H        6.66801119       9.60653575       0.50000000       0.01632804      -0.00946474       0.29275462
H        3.84670930       7.50300702      10.39527673      -0.43094311       0.21384765       0.31053976
H        2.84509597       9.10989539      11.59867649       0.53930643      -0.34211793       0.11557465
H        0.93213978       3.69378313      10.75897522      -0.06235953       0.58288731       0.36020166
H        5.81999619       5.74725756       8.38372284      -0.12970165      -0.06768883      -0.42616367
H       -0.00388934       5.74303203       8.39117524       0.04162008       0.00130544       0.02709057
H        0.98825611       5.85678571      11.40993052      -0.46372775       0.06934176       0.67995463
H        8.73577701       0.69768720       8.39167951       0.04304762      -0.06030034       0.09976747
H        8.81060312       0.99344959      10.69182629       0.61239541      -0.36764630       1.38053206
H        2.90383889       0.70226227       8.39348512      -0.22062525       0.36521424      -0.00619822
H       10.73174777       1.98930454      11.60504136      -0.42991937      -0.87175738      -1.45455727
H        5.86551041       2.92878521      10.38148514       0.59702265      -0.40545609       0.95907977
H        6.66567476       2.87972778       3.80430953      -0.01654168       0.00872515       0.01004823
H        0.83891996       2.87972778       3.80430953      -0.02213521       0.01147359       0.02947911
H        9.57905216       7.92584546       3.80430953      -0.01125420       0.00817430       0.02666600
H       -0.00000000       3.36407845       2.43216338       0.00080271      -0.00097818       0.01412071
H        2.91374669       1.68323730       7.05450224       0.00774118       0.07006363      -0.81747523
H        2.91362782       4.07532321       5.22053452      -0.01283634      -0.00162560       0.02208682
H        8.74013220       6.01751689       0.50000000      -0.00014365       0.01860561       0.29296219
H       -0.00000000       0.97139921       0.50000000       0.00014145       0.01939661       0.29320643
H        5.82675480       0.97139921       0.50000000      -0.00017112       0.01866261       0.29209437
H        4.98583696       0.48513225       5.22034233      -0.00780138      -0.00301783       0.00760796
H        6.74059434       4.73404690      10.40672551       0.18063546      -0.39244273      -0.21356562
H        1.22867951       1.89448241      11.59824940      -0.22702815      -0.56173499       0.54864682
H        8.74013220       9.37889746       3.80430953       0.00242443      -0.01889978       0.02508607
H        0.84125639       9.60653575       0.50000000       0.01616318      -0.00927916       0.29255498
H        7.89955470       5.53120846       5.22002259       0.00522641       0.00509918      -0.00443459
H        5.82675480       3.36407845       2.43216338       0.00012920      -0.00247899       0.00538406
H        8.88717460       9.12116961      11.33268046       0.30620102       0.19495072      -1.45301281
H        8.74013220       8.41019613       2.43216338       0.00131952       0.00135313       0.00894645
H        2.91337740       8.41019613       2.43216338      -0.00232426       0.00148274       0.00865706
H        9.58138859       4.56041807       0.50000000       0.01690522      -0.00978497       0.29342773
H        2.91337740       9.37889746       3.80430953      -0.00293593      -0.02454084       0.02379727
H        3.00736779       5.70004167      10.38918288       0.43269650       1.87262976       0.61180129
H        7.89352015       2.17714015       8.39042426       0.00562591      -0.00420965       0.06384231
H       10.73230027       8.30609871      10.67134198       0.26921847       0.66689579       1.09810388
H        4.98099107       7.22407882       8.38707625       0.20845780      -0.05442121      -0.21687244
H        6.96638969       9.14153245      10.75976285       0.18777493      -0.45379128       1.54904092
H       10.80652839       7.22596195       8.38832207       0.05550669       0.08470816      -0.08220391
H        3.45782176       0.97874236      10.38476315       1.89139668       0.46285555       0.44554470
H        2.07445743       7.92584546       3.80430953       0.01707198       0.01009624       0.02669758
H        2.91337740       5.04611768       1.86675895      -0.00074399       0.00021245      -0.00920780
H        5.82675480       0.00000000       1.86675895      -0.00015036      -0.00108353      -0.01059700
H        0.00000000       0.00000000       1.86675895       0.00007522       0.00072540      -0.00723779
H        7.89887581       4.56041807       0.50000000      -0.01586733      -0.00908659       0.29258489
H        2.07212101       4.56041807       0.50000000      -0.01686795      -0.00987126       0.29350401
H       10.81225320       9.60653575       0.50000000      -0.01617550      -0.00955603       0.29243971
H        2.91337740       6.01751689       0.50000000       0.00006857       0.01852076       0.29303437
H       10.81300260       0.48506797       5.22020373       0.00631160       0.00228849      -0.00180162
H        2.07269713       5.53135904       5.22029849      -0.00436460       0.00421572       0.01032195
H        8.58842427       5.48721855      10.64348037       0.28991955      -0.10811095       0.49772786
H        8.74045413       4.07546677       5.22023350       0.01313752       0.00076055       0.00577777
H        8.74077998       5.04601683       6.59086764       0.03962340      -0.00454702      -0.00322700
H        2.91309776       5.04582129       6.59174963      -0.02004586      -0.00702296       0.00663832
H        5.82682438       0.00018240       6.59193127       0.00614114       0.00634344      -0.00065376
H        0.00001917      -0.00006827       6.59309995       0.00038953      -0.00391497       0.00619694
H        5.82699781       6.72714296       7.05291370      -0.00192327      -0.10723927      -0.38995128
H        6.67087115       6.78869694      10.40308696       0.00550352      -0.73938070       1.00804231
H       -0.00078460       6.72768840       7.05357155      -0.03595809      -0.04058646      -0.07801344
H        8.74014092       1.68259165       7.05306500       0.01328732       0.03636484       0.01402777
H       10.81458963       2.87972778       3.80430953       0.01906890       0.01000755       0.03332272
H        7.03016136       1.09877073      11.60803636      -0.14428409       0.03931843      -1.56505616
H       -0.00000000       4.33277979       3.80430953       0.00001409      -0.02125424       0.03499968
H        4.98549841       9.60653575       0.50000000      -0.01628261      -0.00930430       0.29282715
H        3.75229736       7.92584546       3.80430953      -0.01882375       0.00953955       0.02992290
H        8.74013220       5.04611768       1.86675895       0.00083806       0.00012317      -0.00774215
H        3.76314870       2.16894069       8.39168462      -0.29951341      -0.00463573       0.00378034
H        4.99868398       5.70802666      10.58489639      -0.17910068      -0.19502209       1.24005247
H        9.59437231       2.16859418       8.39224226       0.00215690      -0.02391925       0.09706594
H        0.98049315       8.37898172      11.41819826      -0.60999471      -0.57089942      -1.87984906
H        0.85414796       7.21619267       8.39466622      -0.12365783      -0.01307950       0.22579361
H        8.19027475       7.25712732      11.60944501      -7.21622729       0.44262866       0.13920741
H        6.67971090       7.21667762       8.38948322      -0.28335641      -0.01634598      -0.17416867
H        0.00025938       9.12188456       5.22025146      -0.00043624      -0.00110175      -0.00328711
H        5.82675480       4.33277979       3.80430953       0.00071871      -0.02268209       0.01808267
H        5.82695437       9.12166214       5.22013390      -0.00048851       0.00251891      -0.00175525
H        7.90121223       7.92584546       3.80430953       0.01583209       0.00961938       0.02575509