LAMMPS data file via write_data, version 23 Jun 2022, timestep = 1

88 atoms
5 atom types

0 9.8224603672817 xlo xhi
0 8.519569098152305 ylo yhi
0 26.999979658241696 zlo zhi
-4.911230183640904 5.826384780848943e-14 0.0360251379324295 xy xz yz

Masses

1 28.085
2 15.999
3 1.008
4 18.998403163
5 30.973761998

Atoms # atomic

1 1 -1.180886143559308 6.540881782495387 5.924605540614846 0 0 0
2 1 1.264052779763029 6.206174791805194 7.738234395383143 0 0 0
3 1 1.3118824076017215 6.251806316625072 2.299426066292758 0 0 0
4 1 3.7197022358213205 1.946440206288092 7.738196287062118 0 0 0
5 1 6.185983478260131 2.2811153042577854 5.924607001179829 0 0 0
6 1 3.730310821882906 6.540850927532971 5.924620038255034 0 0 0
7 1 2.2845044449558034 0.010792076711605085 4.094881497972488 0 0 0
8 1 -2.5730458874252724 8.402493851424813 9.572320837862296 0 -1 0
9 1 -0.17110808890844714 4.270577635465614 4.094892263196177 0 0 0
10 1 -0.11750634050916964 4.14273494689014 9.57226070311916 0 0 0
11 1 1.274672783718601 2.281070517654871 5.924628678473215 0 0 0
12 1 7.195713814437686 0.010807007993784402 4.094899143231032 0 0 0
13 1 4.793809176028782 4.142721194639678 9.572207698641975 0 0 0
14 1 -1.143732684218702 1.99202176754892 2.299426066292751 0 0 0
15 1 8.630937717920125 1.9463060456151182 7.738233550684605 -1 0 0
16 1 -3.5993477760391452 6.251806316625066 2.2994260662927695 0 0 0
17 1 6.175341446708414 6.206132955915387 7.738238557031105 -1 0 0
18 1 3.767497499422162 1.9920217675489305 2.2994260662927406 0 0 0
19 1 4.740101989322692 4.270585169778047 4.0948789387599565 0 0 0
20 1 2.3381503690654575 8.402567204331021 9.572184041282249 0 -1 0
21 2 5.552371092114219 4.816015272432409 8.29479601227148 0 0 0
22 2 0.773793696744619 4.851674548929047 2.9198781769704407 0 0 0
23 2 0.6411044198716206 4.816120820877395 8.294919020213563 0 0 0
24 2 8.140638972205934 0.5918899998529168 2.919878176970412 0 0 0
25 2 8.008046075271217 0.5562260097461101 8.294827874248687 0 0 0
26 2 5.685023880385486 4.8516745489290605 2.9198781769704287 0 0 0
27 2 3.7319338687342904 5.070150151552557 10.383766129651983 0 0 0
28 2 -1.1006083514187366 5.437259118264146 4.7415564453329075 0 0 0
29 2 -1.1793923563176647 5.070248079992071 10.38377512903066 0 0 0
30 2 6.266207866018173 1.1775021026430341 4.741541996484052 0 0 0
31 2 6.187520766003 0.8103988866828885 10.383788679446289 0 0 0
32 2 3.8106010816777243 5.4372830846315425 4.7415157776920305 0 0 0
33 2 3.0966132216133664 0.5564072372010781 8.294901261468041 0 0 0
34 2 1.355045202213918 1.1774769870639707 4.741576338791883 0 0 0
35 2 3.2294087885650606 0.5918899998529064 2.9198781769704234 0 0 0
36 2 0.7459234985121651 3.6825187688748815 5.312618353550797 0 0 0
37 2 5.253392085350224 6.7692232581571625 1.0979643893201148 0 0 0
38 2 1.0565338534507347 3.5045887590626443 10.550559991384047 0 0 0
39 2 -1.7096848836371454 7.942309508935085 5.312604843643127 0 0 0
40 2 -1.3990138999955437 7.764256771488012 10.550651188481677 0 0 0
41 2 5.657111218530436 3.6825439985115014 5.312650708887877 0 0 0
42 2 5.967727700919667 3.504613360516835 10.550634109168438 0 0 0
43 2 3.201484793699918 7.942316440965313 5.312671056389575 0 0 0
44 2 3.5120472130167584 7.764497760642157 10.550606706187008 0 0 0
45 2 -1.1157143066533917 3.1040167023825673 3.4881581416814322 0 0 0
46 2 -1.0436617385260671 2.9101027734165363 9.042395467352165 0 0 0
47 2 -3.5713293984738357 7.36380125145871 3.4881581416814496 0 0 0
48 2 -3.4993552141492197 7.169892271656572 9.042506198788962 0 0 0
49 2 3.795515876987476 3.1040167023825798 3.4881581416814202 0 0 0
50 2 3.867444238470885 2.9102016156927553 9.042438278905761 0 0 0
51 2 1.3399007851670368 7.363801251458721 3.4881581416814376 0 0 0
52 2 5.177355980290722 6.829398976927257 6.617139966653784 0 0 0
53 2 1.27623657210255 0.8104586458962921 10.383745648409246 0 0 0
54 2 1.4119321687363975 7.170001714854952 9.042362150922944 0 0 0
55 2 7.632965766928446 2.5696672600852173 6.617205977640112 0 0 0
56 2 7.7090071771706645 2.5094387090810217 1.0979643893200972 0 0 0
57 2 0.2661021912980846 6.829524873512638 6.617163589418463 0 0 0
58 2 0.3421619017093553 6.76922325815715 1.0979643893201259 0 0 0
59 2 2.7216959739323765 2.569683141091192 6.61712225324603 0 0 0
60 2 2.7977769935297956 2.5094387090810093 1.0979643893201088 0 0 0
61 2 2.723195060032778 5.970609852380025 7.076599510832269 0 0 0
62 2 0.3421619017093688 1.7541762254339426 1.689227658549434 0 0 0
63 2 2.7977769935297903 6.013960774510095 1.68922765854944 0 0 0
64 2 5.1788514105053105 1.7107666621673576 7.076563278503067 0 0 0
65 2 5.253392085350232 1.754176225433953 1.6892276585494224 0 0 0
66 2 -2.187982006117145 5.970563073957029 7.076588563835504 0 0 0
67 2 -2.1134531901110756 6.013960774510087 1.6892276585494512 0 0 0
68 2 0.26761824464778877 1.7108567329190294 7.076640977224718 0 0 0
69 3 5.253392085350218 6.768411932485103 0.09796471844484214 0 0 0
70 3 1.9163916866628221 3.979826146452166 10.523566746189838 0 0 0
71 3 -0.5392625643282031 8.239714066983632 10.523579682023747 0 0 0
72 3 6.8275475488350565 3.9798824766503857 10.523468170281605 0 0 0
73 3 4.371962088448699 8.239567693361382 10.523428919336217 0 0 0
74 3 -1.157489382707864 6.061919946104206 10.46497099091877 0 0 0
75 3 6.209361498439194 1.8020233294374106 10.465002555349981 0 0 0
76 3 1.2982495928316817 1.8021202830106287 10.4649737506659 0 0 0
77 3 0.3421619017093677 1.7533648997618856 0.6892279876741612 0 0 0
78 3 -2.1134531901110734 6.013149448838027 0.6892279876741785 0 0 0
79 3 5.253392085350236 1.7533648997618962 0.6892279876741498 0 0 0
80 3 2.7977769935297903 6.013149448838038 0.6892279876741672 0 0 0
81 3 2.797776993529796 2.508627383408952 0.09796471844483609 0 0 0
82 3 0.34216190170935534 6.768411932485092 0.09796471844485362 0 0 0
83 3 3.7538449447450932 6.06176062220671 10.465000286918198 0 0 0
84 3 7.70900717717066 2.5086273834089625 0.0979647184448247 0 0 0
85 4 5.339165358920149 4.137650323335373 13.214928250002936 0 0 0
86 4 3.33546411892624 4.347602866747798 14.354953300324873 0 0 0
87 4 3.3472251549009484 3.6068300603560255 12.161856591936647 0 0 0
88 5 4.077166062581115 3.2335585656502124 13.513539873898493 0 0 0

Velocities

1 0 0 0
2 0 0 0
3 0 0 0
4 0 0 0
5 0 0 0
6 0 0 0
7 0 0 0
8 0 0 0
9 0 0 0
10 0 0 0
11 0 0 0
12 0 0 0
13 0 0 0
14 0 0 0
15 0 0 0
16 0 0 0
17 0 0 0
18 0 0 0
19 0 0 0
20 0 0 0
21 0 0 0
22 0 0 0
23 0 0 0
24 0 0 0
25 0 0 0
26 0 0 0
27 0 0 0
28 0 0 0
29 0 0 0
30 0 0 0
31 0 0 0
32 0 0 0
33 0 0 0
34 0 0 0
35 0 0 0
36 0 0 0
37 0 0 0
38 0 0 0
39 0 0 0
40 0 0 0
41 0 0 0
42 0 0 0
43 0 0 0
44 0 0 0
45 0 0 0
46 0 0 0
47 0 0 0
48 0 0 0
49 0 0 0
50 0 0 0
51 0 0 0
52 0 0 0
53 0 0 0
54 0 0 0
55 0 0 0
56 0 0 0
57 0 0 0
58 0 0 0
59 0 0 0
60 0 0 0
61 0 0 0
62 0 0 0
63 0 0 0
64 0 0 0
65 0 0 0
66 0 0 0
67 0 0 0
68 0 0 0
69 0 0 0
70 0 0 0
71 0 0 0
72 0 0 0
73 0 0 0
74 0 0 0
75 0 0 0
76 0 0 0
77 0 0 0
78 0 0 0
79 0 0 0
80 0 0 0
81 0 0 0
82 0 0 0
83 0 0 0
84 0 0 0
85 0 0 0
86 0 0 0
87 0 0 0
88 0 0 0
