LAMMPS (23 Jun 2022 - Update 4)
  using 1 OpenMP thread(s) per MPI task
Reading data file ...
  triclinic box = (0 0 0) to (9.8224604 8.5195691 26.99998) with tilt (-4.9112302 5.83e-14 0.036025138)
WARNING: Triclinic box skew is large (src/domain.cpp:224)
  1 by 1 by 1 MPI processor grid
  reading atoms ...
  88 atoms
  read_data CPU = 0.001 seconds
Read molecule template my_mol:
  1 molecules
  0 fragments
  2 atoms with max type 3
  0 bonds with max type 0
  0 angles with max type 0
  0 dihedrals with max type 0
  0 impropers with max type 0
WARNING: Molecule attributes do not match system attributes (src/molecule.cpp:1696)
WARNING: No fixes with time integration, atoms won't move (src/verlet.cpp:60)
Neighbor list info ...
  update every 1 steps, delay 10 steps, check yes
  max neighbors/atom: 2000, page size: 100000
  master list distance cutoff = 0
  ghost atom cutoff = 0
  binsize = 14.733691, bins = 1 1 2
  0 neighbor lists, perpetual/occasional/extra = 0 0 0
Setting up Verlet run ...
  Unit style    : metal
  Current step  : 0
  Time step     : 0.001
WARNING: No pairwise cutoff or binsize set. Atom sorting therefore disabled. (src/atom.cpp:2142)
WARNING: Communication cutoff is 0.0. No ghost atoms will be generated. Atoms may get lost. (src/comm_brick.cpp:210)
Per MPI rank memory allocation (min/avg/max) = 2.289 | 2.289 | 2.289 Mbytes
   Step          Temp          E_pair         E_mol          TotEng         Press     
         0   0              0              0              0              0            
         1   0              0              0              0              0            
Loop time of 2.7487e-05 on 1 procs for 1 steps with 90 atoms

Performance: 3143.304 ns/day, 0.008 hours/ns, 36380.835 timesteps/s
80.0% CPU use with 1 MPI tasks x 1 OpenMP threads

MPI task timing breakdown:
Section |  min time  |  avg time  |  max time  |%varavg| %total
---------------------------------------------------------------
Pair    | 0          | 0          | 0          |   0.0 |  0.00
Neigh   | 2.33e-07   | 2.33e-07   | 2.33e-07   |   0.0 |  0.85
Comm    | 1.888e-06  | 1.888e-06  | 1.888e-06  |   0.0 |  6.87
Output  | 3.774e-06  | 3.774e-06  | 3.774e-06  |   0.0 | 13.73
Modify  | 1.8467e-05 | 1.8467e-05 | 1.8467e-05 |   0.0 | 67.18
Other   |            | 3.125e-06  |            |       | 11.37

Nlocal:             90 ave          90 max          90 min
Histogram: 1 0 0 0 0 0 0 0 0 0
Nghost:              0 ave           0 max           0 min
Histogram: 1 0 0 0 0 0 0 0 0 0
Neighs:              0 ave           0 max           0 min
Histogram: 1 0 0 0 0 0 0 0 0 0

Total # of neighbors = 0
Ave neighs/atom = 0
Neighbor list builds = 1
Dangerous builds = 0
System init for write_data ...
WARNING: Communication cutoff is 0.0. No ghost atoms will be generated. Atoms may get lost. (src/comm_brick.cpp:210)
Total wall time: 0:00:00
