ITEM: TIMESTEP
0
ITEM: NUMBER OF ATOMS
136
ITEM: BOX BOUNDS xy xz yz pp pp ff
0.0000000000000000e+00 1.1653509596413000e+01 0.0000000000000000e+00
0.0000000000000000e+00 1.0092235353740000e+01 0.0000000000000000e+00
0.0000000000000000e+00 2.4290024512877000e+01 0.0000000000000000e+00
ITEM: ATOMS id type element xu yu zu fx fy fz
1 1 H 2.91338 9.3789 3.80431 0 0 0
2 1 H 8.74013 9.3789 3.80431 0 0 0
3 1 H 0 4.33278 3.80431 0 0 0
4 1 H 5.82675 4.33278 3.80431 0 0 0
5 1 H 4.9855 9.60654 0.5 0 0 0
6 1 H 10.8123 9.60654 0.5 0 0 0
7 1 H 2.07212 4.56042 0.5 0 0 0
8 1 H 7.89888 4.56042 0.5 0 0 0
9 1 H 0 0 1.86676 0 0 0
10 1 H 5.82675 0 1.86676 0 0 0
11 1 H 2.91338 5.04612 1.86676 0 0 0
12 1 H 8.74013 5.04612 1.86676 0 0 0
13 1 H 0 0 6.51177 2.25748e-07 1.17725e-07 0.230047
14 1 H 5.82675 0 6.51177 2.27293e-07 -2.32831e-10 0.230046
15 1 H 2.91338 5.04612 6.51177 3.99596e-08 4.78176e-08 0.230047
16 1 H 8.74013 5.04612 6.51177 -1.60406e-07 2.14292e-07 0.230046
17 1 H 0.841256 9.60654 0.5 0 0 0
18 1 H 6.66801 9.60654 0.5 0 0 0
19 1 H 3.75463 4.56042 0.5 0 0 0
20 1 H 9.58139 4.56042 0.5 0 0 0
21 1 H 2.91338 8.4102 2.43216 0 0 0
22 1 H 8.74013 8.4102 2.43216 0 0 0
23 1 H 0 3.36408 2.43216 0 0 0
24 1 H 5.82675 3.36408 2.43216 0 0 0
25 1 H 2.91338 4.07472 5.14501 -4.47734e-05 0.0351739 0.00722517
26 1 H 8.74013 4.07472 5.14501 -4.4842e-05 0.0351739 0.00722523
27 1 H 0 9.12084 5.14501 -4.47351e-05 0.0351767 0.00722651
28 1 H 5.82675 9.12084 5.14501 -4.47595e-05 0.035177 0.00722677
29 1 H 3.7523 7.92585 3.80431 0 0 0
30 1 H 9.57905 7.92585 3.80431 0 0 0
31 1 H 0.83892 2.87973 3.80431 0 0 0
32 1 H 6.66567 2.87973 3.80431 0 0 0
33 1 H 2.91338 6.01752 0.5 0 0 0
34 1 H 8.74013 6.01752 0.5 0 0 0
35 1 H 0 0.971399 0.5 0 0 0
36 1 H 5.82675 0.971399 0.5 0 0 0
37 1 H 4.9855 0.4857 5.14501 0.0304794 -0.0175457 0.00722352
38 1 H 10.8123 0.4857 5.14501 0.0304764 -0.0175449 0.0072231
39 1 H 2.07212 5.53182 5.14501 0.030484 -0.0175487 0.00722528
40 1 H 7.89888 5.53182 5.14501 0.0304863 -0.0175501 0.00722653
41 1 H 2.07446 7.92585 3.80431 0 0 0
42 1 H 7.90121 7.92585 3.80431 0 0 0
43 1 H 4.98783 2.87973 3.80431 0 0 0
44 1 H 10.8146 2.87973 3.80431 0 0 0
45 1 H 3.7523 2.16639 8.44932 0.169678 0.0958582 -0.228298
46 1 H 9.57905 2.16639 8.44932 0.169686 0.0958625 -0.228295
47 1 H 0.83892 7.21251 8.44932 0.16968 0.095859 -0.228298
48 1 H 6.66567 7.21251 8.44932 0.169678 0.095858 -0.228298
49 1 H 2.07446 2.16639 8.44932 -0.167856 0.0990176 -0.228297
50 1 H 7.90121 2.16639 8.44932 -0.167854 0.099016 -0.228298
51 1 H 4.98783 7.21251 8.44932 -0.167861 0.0990197 -0.228296
52 1 H 10.8146 7.21251 8.44932 -0.167864 0.099021 -0.228295
53 1 H 2.91338 1.68204 7.07718 4.17266e-08 9.88506e-08 0.0412861
54 1 H 8.74013 1.68204 7.07718 7.01156e-08 3.58787e-07 0.041287
55 1 H 0 6.72816 7.07718 -2.06455e-08 -2.32965e-08 0.0412865
56 1 H 5.82675 6.72816 7.07718 1.42128e-07 -1.05372e-07 0.0412872
57 1 H 0.841256 0.4857 5.14501 -0.0304365 -0.0176252 0.00722522
58 1 H 6.66801 0.4857 5.14501 -0.030441 -0.0176269 0.00722635
59 1 H 3.75463 5.53182 5.14501 -0.0304414 -0.0176271 0.00722636
60 1 H 9.58139 5.53182 5.14501 -0.0304357 -0.0176244 0.00722431
61 1 H 2.91338 0.713338 8.44932 -0.00182345 -0.194877 -0.228297
62 1 H 8.74013 0.713338 8.44932 -0.00182336 -0.194877 -0.228297
63 1 H 0 5.75946 8.44932 -0.0018233 -0.194877 -0.228297
64 1 H 5.82675 5.75946 8.44932 -0.0018233 -0.194876 -0.228297
65 2 N 2.91338 8.4102 3.45939 0 0 0
66 2 N 8.74013 8.4102 3.45939 0 0 0
67 2 N 0 3.36408 3.45939 0 0 0
68 2 N 5.82675 3.36408 3.45939 0 0 0
69 2 N 2.91338 1.68204 8.10441 2.04006e-06 9.49018e-07 0.562847
70 2 N 8.74013 1.68204 8.10441 -8.80286e-06 -2.31154e-06 0.562844
71 2 N 0 6.72816 8.10441 6.85695e-06 -2.44565e-06 0.562844
72 2 N 5.82675 6.72816 8.10441 5.67536e-06 -9.87202e-07 0.562846
73 2 N 0 0 5.48664 5.24643e-06 -7.02241e-06 -0.0686277
74 2 N 5.82675 0 5.48664 6.58593e-06 -4.74299e-06 -0.0686289
75 2 N 2.91338 5.04612 5.48664 2.17929e-06 1.60141e-06 -0.0686302
76 2 N 8.74013 5.04612 5.48664 -5.57653e-06 2.32831e-08 -0.0686286
77 2 N 0 0 0.84163 0 0 0
78 2 N 5.82675 0 0.84163 0 0 0
79 2 N 2.91338 5.04612 0.84163 0 0 0
80 2 N 8.74013 5.04612 0.84163 0 0 0
81 3 F 4.1322 7.70651 5.96166 0.125628 -0.0714636 -0.2369
82 3 F 9.95896 7.70651 5.96166 0.125629 -0.0714638 -0.236901
83 3 F 1.21883 2.66039 5.96166 0.12563 -0.0714634 -0.2369
84 3 F 7.04558 2.66039 5.96166 0.125628 -0.0714635 -0.236899
85 3 F 1.69253 9.11506 7.94608 0.0672246 -0.0391604 -0.133201
86 3 F 7.51928 9.11506 7.94608 0.0672249 -0.0391608 -0.133202
87 3 F 4.6059 4.06894 7.94608 0.0672246 -0.0391621 -0.133201
88 3 F 10.4327 4.06894 7.94608 0.0672198 -0.0391613 -0.1332
89 3 F 4.13423 9.11506 7.94608 -0.0675276 -0.0386366 -0.133201
90 3 F 9.96098 9.11506 7.94608 -0.067525 -0.0386352 -0.1332
91 3 F 1.22085 4.06894 7.94608 -0.0675255 -0.0386389 -0.133202
92 3 F 7.04761 4.06894 7.94608 -0.0675276 -0.0386384 -0.133202
93 3 F 2.91338 9.81757 5.96166 -0.000923944 0.144532 -0.236901
94 3 F 8.74013 9.81757 5.96166 -0.000924925 0.144532 -0.236901
95 3 F 0 4.77146 5.96166 -0.000923921 0.144528 -0.2369
96 3 F 5.82675 4.77146 5.96166 -0.000924003 0.144527 -0.236899
97 3 F 2.91338 3.09176 3.30107 0 0 0
98 3 F 8.74013 3.09176 3.30107 0 0 0
99 3 F 0 8.13788 3.30107 0 0 0
100 3 F 5.82675 8.13788 3.30107 0 0 0
101 3 F 4.1322 2.38573 1.31665 0 0 0
102 3 F 9.95896 2.38573 1.31665 0 0 0
103 3 F 1.21883 7.43185 1.31665 0 0 0
104 3 F 7.04558 7.43185 1.31665 0 0 0
105 3 F 1.69455 7.70651 5.96166 -0.124705 -0.0730653 -0.236901
106 3 F 7.52131 7.70651 5.96166 -0.124704 -0.0730651 -0.2369
107 3 F 4.60793 2.66039 5.96166 -0.124704 -0.0730655 -0.2369
108 3 F 10.4347 2.66039 5.96166 -0.124707 -0.0730661 -0.2369
109 3 F 2.91338 7.00048 7.94608 0.00030337 0.0777993 -0.133201
110 3 F 8.74013 7.00048 7.94608 0.000301531 0.0777994 -0.133202
111 3 F 0 1.95436 7.94608 0.000302616 0.0777998 -0.133201
112 3 F 5.82675 1.95436 7.94608 0.000303008 0.0777996 -0.133201
113 3 F 4.13423 0.97718 3.30107 0 0 0
114 3 F 9.96098 0.97718 3.30107 0 0 0
115 3 F 1.22085 6.0233 3.30107 0 0 0
116 3 F 7.04761 6.0233 3.30107 0 0 0
117 3 F 1.69455 2.38573 1.31665 0 0 0
118 3 F 7.52131 2.38573 1.31665 0 0 0
119 3 F 4.60793 7.43185 1.31665 0 0 0
120 3 F 10.4347 7.43185 1.31665 0 0 0
121 3 F 1.69253 0.97718 3.30107 0 0 0
122 3 F 7.51928 0.97718 3.30107 0 0 0
123 3 F 4.6059 6.0233 3.30107 0 0 0
124 3 F 10.4327 6.0233 3.30107 0 0 0
125 3 F 2.91338 0.274661 1.31665 0 0 0
126 3 F 8.74013 0.274661 1.31665 0 0 0
127 3 F 0 5.32078 1.31665 0 0 0
128 3 F 5.82675 5.32078 1.31665 0 0 0
129 4 Si 2.91338 1.68204 2.29879 0 0 0
130 4 Si 8.74013 1.68204 2.29879 0 0 0
131 4 Si 0 6.72816 2.29879 0 0 0
132 4 Si 5.82675 6.72816 2.29879 0 0 0
133 4 Si 2.91338 8.4102 6.94381 3.21161e-07 -4.73973e-06 0.98117
134 4 Si 8.74013 8.4102 6.94381 -2.67486e-06 -4.78351e-06 0.98117
135 4 Si 0 3.36408 6.94381 4.01169e-06 1.47382e-06 0.981167
136 4 Si 5.82675 3.36408 6.94381 1.04062e-07 2.20397e-06 0.981166
ITEM: TIMESTEP
10
ITEM: NUMBER OF ATOMS
136
ITEM: BOX BOUNDS xy xz yz pp pp ff
0.0000000000000000e+00 1.1653509596413000e+01 0.0000000000000000e+00
0.0000000000000000e+00 1.0092235353740000e+01 0.0000000000000000e+00
0.0000000000000000e+00 2.4290024512877000e+01 0.0000000000000000e+00
ITEM: ATOMS id type element xu yu zu fx fy fz
1 1 H 2.91338 9.3789 3.80431 0 0 0
2 1 H 8.74013 9.3789 3.80431 0 0 0
3 1 H 0 4.33278 3.80431 0 0 0
4 1 H 5.82675 4.33278 3.80431 0 0 0
5 1 H 4.9855 9.60654 0.5 0 0 0
6 1 H 10.8123 9.60654 0.5 0 0 0
7 1 H 2.07212 4.56042 0.5 0 0 0
8 1 H 7.89888 4.56042 0.5 0 0 0
9 1 H 0 0 1.86676 0 0 0
10 1 H 5.82675 0 1.86676 0 0 0
11 1 H 2.91338 5.04612 1.86676 0 0 0
12 1 H 8.74013 5.04612 1.86676 0 0 0
13 1 H 0.00201114 0.00228324 6.52341 0.0248841 -0.00277864 0.0326785
14 1 H 5.82684 0.00554686 6.52208 0.000406774 0.0240854 0.0305102
15 1 H 2.91366 5.04629 6.52124 0.00182304 0.00142953 0.0306745
16 1 H 8.73959 5.04668 6.52148 -0.00384012 0.00376247 0.0324508
17 1 H 0.841256 9.60654 0.5 0 0 0
18 1 H 6.66801 9.60654 0.5 0 0 0
19 1 H 3.75463 4.56042 0.5 0 0 0
20 1 H 9.58139 4.56042 0.5 0 0 0
21 1 H 2.91338 8.4102 2.43216 0 0 0
22 1 H 8.74013 8.4102 2.43216 0 0 0
23 1 H 0 3.36408 2.43216 0 0 0
24 1 H 5.82675 3.36408 2.43216 0 0 0
25 1 H 2.91364 4.07629 5.14731 0.00201686 0.00296581 0.0249297
26 1 H 8.73981 4.07653 5.14746 -0.00237657 0.0047126 0.0262109
27 1 H -0.0197259 9.12363 5.14114 -0.11127 0.0103067 -0.00397233
28 1 H 5.82684 9.1205 5.14798 0.000598894 -0.00507921 0.0398417
29 1 H 3.7523 7.92585 3.80431 0 0 0
30 1 H 9.57905 7.92585 3.80431 0 0 0
31 1 H 0.83892 2.87973 3.80431 0 0 0
32 1 H 6.66567 2.87973 3.80431 0 0 0
33 1 H 2.91338 6.01752 0.5 0 0 0
34 1 H 8.74013 6.01752 0.5 0 0 0
35 1 H 0 0.971399 0.5 0 0 0
36 1 H 5.82675 0.971399 0.5 0 0 0
37 1 H 4.98719 0.484239 5.14679 0.00262029 -0.00705728 0.0173015
38 1 H 10.8193 0.485744 5.1503 0.0347253 0.0400103 0.0488502
39 1 H 2.07352 5.53126 5.14741 0.00251029 -0.000101429 0.0262305
40 1 H 7.89999 5.53144 5.14763 0.000329744 0.00235621 0.0261031
41 1 H 2.07446 7.92585 3.80431 0 0 0
42 1 H 7.90121 7.92585 3.80431 0 0 0
43 1 H 4.98783 2.87973 3.80431 0 0 0
44 1 H 10.8146 2.87973 3.80431 0 0 0
45 1 H 3.7648 2.17311 8.43325 0.0180885 0.00731047 -0.0338899
46 1 H 9.59055 2.17208 8.43437 0.012375 -0.000643113 -0.0256334
47 1 H 0.851546 7.21942 8.43287 0.0184302 0.00568418 -0.0393092
48 1 H 6.67822 7.21944 8.43295 0.0182989 0.00872451 -0.0360307
49 1 H 2.06234 2.17349 8.43302 -0.0159968 0.00861977 -0.035992
50 1 H 7.8888 2.17368 8.43322 -0.019011 0.00869217 -0.03349
51 1 H 4.97587 7.21995 8.43293 -0.0145527 0.0123441 -0.0363564
52 1 H 10.8029 7.21998 8.43279 -0.0132306 0.0136964 -0.0378615
53 1 H 2.91364 1.68182 7.09427 0.00205835 -0.00149255 0.0170293
54 1 H 8.73958 1.68149 7.09435 -0.00252349 -0.003314 0.0189371
55 1 H -0.000440148 6.72688 7.09362 -0.000984183 -0.00506321 0.0125249
56 1 H 5.82686 6.72831 7.09401 0.000649747 0.00106674 0.0153211
57 1 H 0.84427 0.483041 5.14569 0.0281237 -0.0412201 0.0113472
58 1 H 6.66667 0.484269 5.14683 -0.000286428 -0.00698767 0.0175526
59 1 H 3.75368 5.53135 5.14738 0.000589381 0.000794952 0.025356
60 1 H 9.58006 5.53146 5.14763 -0.00218541 0.00155914 0.0272523
61 1 H 2.91328 0.699036 8.43319 -0.000871018 -0.0198 -0.0345762
62 1 H 8.73962 0.698699 8.43317 -0.00699822 -0.0235942 -0.0339679
63 1 H -0.00140299 5.74523 8.43244 -0.00610558 -0.0188497 -0.0365697
64 1 H 5.82662 5.74552 8.43305 -0.00102069 -0.0176141 -0.0354882
65 2 N 2.91338 8.4102 3.45939 0 0 0
66 2 N 8.74013 8.4102 3.45939 0 0 0
67 2 N 0 3.36408 3.45939 0 0 0
68 2 N 5.82675 3.36408 3.45939 0 0 0
69 2 N 2.91358 1.68189 8.12383 0.000338539 -0.000563895 0.00866935
70 2 N 8.73945 1.68145 8.12397 -0.00429021 -0.00582421 0.0112478
71 2 N 0.000383173 6.72823 8.12336 -0.000718385 -0.00088122 0.00452046
72 2 N 5.82693 6.72831 8.12355 0.000885871 0.00105894 0.0070613
73 2 N 0.00627028 -0.00204732 5.49346 0.013606 -0.00148192 0.0384092
74 2 N 5.82694 -0.00160841 5.49161 0.00116073 0.000288373 0.0325798
75 2 N 2.91369 5.04631 5.49202 0.00195884 0.00114829 0.0315036
76 2 N 8.73994 5.04653 5.49231 -0.00169068 0.00316332 0.0325595
77 2 N 0 0 0.84163 0 0 0
78 2 N 5.82675 0 0.84163 0 0 0
79 2 N 2.91338 5.04612 0.84163 0 0 0
80 2 N 8.74013 5.04612 0.84163 0 0 0
81 3 F 4.13262 7.70561 5.95287 -0.0022472 -0.00111356 -0.0186566
82 3 F 9.95886 7.70609 5.95231 -0.00455271 0.000611285 -0.0205571
83 3 F 1.21833 2.66008 5.95298 -0.010394 0.000503136 -0.0213831
84 3 F 7.04685 2.66 5.95299 0.00102347 0.00158319 -0.0173927
85 3 F 1.69244 9.1151 7.94266 0.00427575 -0.00191099 -0.0147543
86 3 F 7.51905 9.11508 7.94252 0.00256078 -0.00303356 -0.0151217
87 3 F 4.60625 4.06892 7.94258 0.00741738 -0.00288604 -0.0148124
88 3 F 10.4316 4.0691 7.94233 -0.000666034 -0.00326521 -0.02237
89 3 F 4.1345 9.11514 7.9424 -0.0038283 -0.002459 -0.0171888
90 3 F 9.96096 9.11499 7.94233 -0.00440283 -0.00349541 -0.0166536
91 3 F 1.21957 4.06892 7.94202 -0.0113638 0.000278346 -0.0145281
92 3 F 7.04844 4.06902 7.94251 3.46876e-05 -0.0029756 -0.0158427
93 3 F 2.91373 9.81828 5.95279 0.00254494 -0.00281448 -0.0188278
94 3 F 8.73992 9.81842 5.95305 -0.00133249 -0.00335928 -0.0166597
95 3 F 0.00353182 4.77569 5.95076 0.0153429 0.00318179 -0.0211608
96 3 F 5.82703 4.77225 5.95295 0.00233653 -0.00326373 -0.0176471
97 3 F 2.91338 3.09176 3.30107 0 0 0
98 3 F 8.74013 3.09176 3.30107 0 0 0
99 3 F 0 8.13788 3.30107 0 0 0
100 3 F 5.82675 8.13788 3.30107 0 0 0
101 3 F 4.1322 2.38573 1.31665 0 0 0
102 3 F 9.95896 2.38573 1.31665 0 0 0
103 3 F 1.21883 7.43185 1.31665 0 0 0
104 3 F 7.04558 7.43185 1.31665 0 0 0
105 3 F 1.69435 7.70581 5.95309 0.00674628 -0.00142647 -0.0158828
106 3 F 7.52141 7.70532 5.95298 0.00417204 -0.00248266 -0.0180513
107 3 F 4.60781 2.65978 5.95293 0.00657011 0.000333357 -0.0177725
108 3 F 10.4335 2.66028 5.95313 -0.0012014 0.00754625 -0.0142104
109 3 F 2.91375 7.0005 7.94274 0.0023289 0.00484489 -0.0127206
110 3 F 8.73999 7.0002 7.94257 -0.000171746 0.00410259 -0.0151659
111 3 F 0.00259369 1.95187 7.94401 0.0130284 0.00133578 -0.0148142
112 3 F 5.82715 1.95402 7.94249 0.00299097 0.00323757 -0.0160465
113 3 F 4.13423 0.97718 3.30107 0 0 0
114 3 F 9.96098 0.97718 3.30107 0 0 0
115 3 F 1.22085 6.0233 3.30107 0 0 0
116 3 F 7.04761 6.0233 3.30107 0 0 0
117 3 F 1.69455 2.38573 1.31665 0 0 0
118 3 F 7.52131 2.38573 1.31665 0 0 0
119 3 F 4.60793 7.43185 1.31665 0 0 0
120 3 F 10.4347 7.43185 1.31665 0 0 0
121 3 F 1.69253 0.97718 3.30107 0 0 0
122 3 F 7.51928 0.97718 3.30107 0 0 0
123 3 F 4.6059 6.0233 3.30107 0 0 0
124 3 F 10.4327 6.0233 3.30107 0 0 0
125 3 F 2.91338 0.274661 1.31665 0 0 0
126 3 F 8.74013 0.274661 1.31665 0 0 0
127 3 F 0 5.32078 1.31665 0 0 0
128 3 F 5.82675 5.32078 1.31665 0 0 0
129 4 Si 2.91338 1.68204 2.29879 0 0 0
130 4 Si 8.74013 1.68204 2.29879 0 0 0
131 4 Si 0 6.72816 2.29879 0 0 0
132 4 Si 5.82675 6.72816 2.29879 0 0 0
133 4 Si 2.91329 8.41021 6.96373 -2.3816e-06 -0.00140047 -0.00862946
134 4 Si 8.73974 8.41021 6.9641 -0.00172552 -0.000803462 -0.00751396
135 4 Si -0.00264766 3.36431 6.96378 -0.00456524 0.00381759 -0.0109178
136 4 Si 5.82732 3.36409 6.96395 0.00383842 4.09296e-05 -0.00796319
ITEM: TIMESTEP
20
ITEM: NUMBER OF ATOMS
136
ITEM: BOX BOUNDS xy xz yz pp pp ff
0.0000000000000000e+00 1.1653509596413000e+01 0.0000000000000000e+00
0.0000000000000000e+00 1.0092235353740000e+01 0.0000000000000000e+00
0.0000000000000000e+00 2.4290024512877000e+01 0.0000000000000000e+00
ITEM: ATOMS id type element xu yu zu fx fy fz
1 1 H 2.91338 9.3789 3.80431 0 0 0
2 1 H 8.74013 9.3789 3.80431 0 0 0
3 1 H 0 4.33278 3.80431 0 0 0
4 1 H 5.82675 4.33278 3.80431 0 0 0
5 1 H 4.9855 9.60654 0.5 0 0 0
6 1 H 10.8123 9.60654 0.5 0 0 0
7 1 H 2.07212 4.56042 0.5 0 0 0
8 1 H 7.89888 4.56042 0.5 0 0 0
9 1 H 0 0 1.86676 0 0 0
10 1 H 5.82675 0 1.86676 0 0 0
11 1 H 2.91338 5.04612 1.86676 0 0 0
12 1 H 8.74013 5.04612 1.86676 0 0 0
13 1 H 0.0090392 -0.000236726 6.53036 0.0298383 -0.0569885 0.0107408
14 1 H 5.82696 0.0109748 6.52894 0.000494681 0.0197268 0.033691
15 1 H 2.91417 5.04661 6.52821 0.00208605 0.00109033 0.0304121
16 1 H 8.7387 5.04752 6.52881 -0.00310221 0.0030072 0.0294369
17 1 H 0.841256 9.60654 0.5 0 0 0
18 1 H 6.66801 9.60654 0.5 0 0 0
19 1 H 3.75463 4.56042 0.5 0 0 0
20 1 H 9.58139 4.56042 0.5 0 0 0
21 1 H 2.91338 8.4102 2.43216 0 0 0
22 1 H 8.74013 8.4102 2.43216 0 0 0
23 1 H 0 3.36408 2.43216 0 0 0
24 1 H 5.82675 3.36408 2.43216 0 0 0
25 1 H 2.91416 4.07672 5.15393 0.00191798 0.00234723 0.0257509
26 1 H 8.73922 4.07741 5.15444 -0.00230593 0.00429326 0.0269274
27 1 H -0.0457172 9.12632 5.14172 -0.112545 0.0280676 0.00681955
28 1 H 5.82701 9.1192 5.15899 0.000719189 0.00102328 0.0451377
29 1 H 3.7523 7.92585 3.80431 0 0 0
30 1 H 9.57905 7.92585 3.80431 0 0 0
31 1 H 0.83892 2.87973 3.80431 0 0 0
32 1 H 6.66567 2.87973 3.80431 0 0 0
33 1 H 2.91338 6.01752 0.5 0 0 0
34 1 H 8.74013 6.01752 0.5 0 0 0
35 1 H 0 0.971399 0.5 0 0 0
36 1 H 5.82675 0.971399 0.5 0 0 0
37 1 H 4.98756 0.482748 5.15117 0.00236136 -0.00530538 0.0168241
38 1 H 10.8273 0.500521 5.16388 0.031558 0.0667788 0.057307
39 1 H 2.07395 5.53141 5.15431 0.00274229 0.00013621 0.0269146
40 1 H 7.89983 5.53229 5.15438 -0.000536369 0.00335875 0.0254021
41 1 H 2.07446 7.92585 3.80431 0 0 0
42 1 H 7.90121 7.92585 3.80431 0 0 0
43 1 H 4.98783 2.87973 3.80431 0 0 0
44 1 H 10.8146 2.87973 3.80431 0 0 0
45 1 H 3.76641 2.17339 8.42791 -0.00289777 -0.00326525 -0.0161076
46 1 H 9.59104 2.17037 8.43081 -0.00612719 -0.0109497 -0.00972322
47 1 H 0.85343 7.21903 8.42601 -2.21624e-05 -0.00655581 -0.021638
48 1 H 6.67999 7.22002 8.42705 0.000706113 -0.00119677 -0.0173792
49 1 H 2.0611 2.17405 8.42711 -0.00156594 0.0012274 -0.0158824
50 1 H 7.88679 2.17401 8.42804 0.000279051 -0.00434183 -0.0152058
51 1 H 4.97503 7.22146 8.42697 0.00239993 0.00248219 -0.0174166
52 1 H 10.8023 7.22194 8.42624 0.00215782 0.00476039 -0.019846
53 1 H 2.91419 1.68149 7.09301 0.00278029 -0.000495936 -0.0197112
54 1 H 8.7392 1.68074 7.0938 -0.00172976 -0.00271705 -0.0152596
55 1 H -0.000637737 6.72583 7.09134 -0.000748675 -0.00407169 -0.0230693
56 1 H 5.82704 6.72856 7.0924 0.000715786 0.000841609 -0.0208314
57 1 H 0.851357 0.469906 5.1481 0.0227287 -0.0575179 0.00958093
58 1 H 6.66691 0.482729 5.15132 0.000305633 -0.0056521 0.0173769
59 1 H 3.75403 5.5317 5.15405 -6.62458e-05 0.000515459 0.0259587
60 1 H 9.57971 5.532 5.1548 -0.00197324 0.00177546 0.0275664
61 1 H 2.91308 0.697302 8.42763 -0.000348941 0.000969725 -0.0160644
62 1 H 8.73746 0.695823 8.42786 -0.00973126 -0.0108214 -0.0126378
63 1 H -0.00282111 5.74372 8.4265 -0.0053626 0.0012009 -0.017559
64 1 H 5.82629 5.7443 8.42727 -0.00157229 0.00244544 -0.0171107
65 2 N 2.91338 8.4102 3.45939 0 0 0
66 2 N 8.74013 8.4102 3.45939 0 0 0
67 2 N 0 3.36408 3.45939 0 0 0
68 2 N 5.82675 3.36408 3.45939 0 0 0
69 2 N 2.91369 1.68171 8.12183 0.00888533 -0.00132818 -0.00647623
70 2 N 8.73846 1.68004 8.12276 -0.00462514 0.00648109 -0.00497161
71 2 N 0.000231197 6.72802 8.1204 0.00337492 -0.00107255 -0.010748
72 2 N 5.82714 6.72857 8.12123 0.00105189 0.000291367 -0.0081593
73 2 N 0.00775926 -0.00221085 5.50082 0.0214198 0.0289381 0.0248446
74 2 N 5.82721 -0.00132866 5.4987 0.000753895 -0.00457099 0.00917651
75 2 N 2.91419 5.04659 5.49904 0.00203514 0.00189043 0.0153799
76 2 N 8.73949 5.04731 5.49957 -0.000920242 0.00227853 0.0192434
77 2 N 0 0 0.84163 0 0 0
78 2 N 5.82675 0 0.84163 0 0 0
79 2 N 2.91338 5.04612 0.84163 0 0 0
80 2 N 8.74013 5.04612 0.84163 0 0 0
81 3 F 4.13277 7.70521 5.949 0.00218178 -0.00157837 -0.0125376
82 3 F 9.95837 7.70594 5.94799 -0.00407252 -0.00425348 -0.014287
83 3 F 1.21688 2.66009 5.94834 -0.0015627 0.00243623 -0.0151915
84 3 F 7.04755 2.66012 5.94925 0.00314388 7.29044e-05 -0.0128122
85 3 F 1.69278 9.11503 7.93893 0.000965319 -0.000433923 -0.0143184
86 3 F 7.51898 9.11463 7.93904 -0.00110902 -0.00168307 -0.0124876
87 3 F 4.60743 4.06858 7.93911 0.00349665 -0.000812005 -0.0127813
88 3 F 10.4309 4.06898 7.93726 -0.00226303 0.00124131 -0.0176507
89 3 F 4.13435 9.11496 7.93839 0.00056695 -3.24227e-05 -0.0145585
90 3 F 9.9606 9.11442 7.93847 -0.00113223 -0.00277981 -0.0135904
91 3 F 1.2182 4.06946 7.9388 -0.00180818 0.00292114 -0.0118776
92 3 F 7.04911 4.06866 7.93884 0.0032048 -0.000934321 -0.0133618
93 3 F 2.91416 9.81792 5.94871 0.00168533 -0.00162593 -0.0143602
94 3 F 8.73949 9.81795 5.94958 -0.0027409 -0.00169283 -0.011645
95 3 F 0.00610471 4.77645 5.94641 0.00522902 0.00270261 -0.0140665
96 3 F 5.82765 4.77198 5.94921 0.002376 2.17224e-05 -0.0125608
97 3 F 2.91338 3.09176 3.30107 0 0 0
98 3 F 8.74013 3.09176 3.30107 0 0 0
99 3 F 0 8.13788 3.30107 0 0 0
100 3 F 5.82675 8.13788 3.30107 0 0 0
101 3 F 4.1322 2.38573 1.31665 0 0 0
102 3 F 9.95896 2.38573 1.31665 0 0 0
103 3 F 1.21883 7.43185 1.31665 0 0 0
104 3 F 7.04558 7.43185 1.31665 0 0 0
105 3 F 1.69554 7.70508 5.94982 0.00717321 -0.00716978 -0.0104164
106 3 F 7.52171 7.70473 5.94918 -0.000561393 -0.00189637 -0.0127324
107 3 F 4.60892 2.65969 5.94918 0.00302025 -0.000380352 -0.0125224
108 3 F 10.4327 2.66153 5.94963 -0.00332049 0.00404175 -0.0136781
109 3 F 2.91434 7.00086 7.93986 0.00187096 0.000365416 -0.0105461
110 3 F 8.73997 7.00036 7.93892 9.7873e-05 -0.000769675 -0.014155
111 3 F 0.00468498 1.95211 7.94012 0.00308101 0.00224957 -0.0153747
112 3 F 5.82793 1.95396 7.93872 0.0028949 -0.00126878 -0.0139761
113 3 F 4.13423 0.97718 3.30107 0 0 0
114 3 F 9.96098 0.97718 3.30107 0 0 0
115 3 F 1.22085 6.0233 3.30107 0 0 0
116 3 F 7.04761 6.0233 3.30107 0 0 0
117 3 F 1.69455 2.38573 1.31665 0 0 0
118 3 F 7.52131 2.38573 1.31665 0 0 0
119 3 F 4.60793 7.43185 1.31665 0 0 0
120 3 F 10.4347 7.43185 1.31665 0 0 0
121 3 F 1.69253 0.97718 3.30107 0 0 0
122 3 F 7.51928 0.97718 3.30107 0 0 0
123 3 F 4.6059 6.0233 3.30107 0 0 0
124 3 F 10.4327 6.0233 3.30107 0 0 0
125 3 F 2.91338 0.274661 1.31665 0 0 0
126 3 F 8.74013 0.274661 1.31665 0 0 0
127 3 F 0 5.32078 1.31665 0 0 0
128 3 F 5.82675 5.32078 1.31665 0 0 0
129 4 Si 2.91338 1.68204 2.29879 0 0 0
130 4 Si 8.74013 1.68204 2.29879 0 0 0
131 4 Si 0 6.72816 2.29879 0 0 0
132 4 Si 5.82675 6.72816 2.29879 0 0 0
133 4 Si 2.91346 8.40981 6.95974 0.00358653 -0.00400113 -0.0134648
134 4 Si 8.73939 8.41005 6.96027 -0.00355856 -0.00267195 -0.0128356
135 4 Si -0.00282912 3.3648 6.95949 -7.85677e-05 0.00460097 -0.0138762
136 4 Si 5.82819 3.36404 6.96002 0.00302864 -0.000301677 -0.0144377
ITEM: TIMESTEP
30
ITEM: NUMBER OF ATOMS
136
ITEM: BOX BOUNDS xy xz yz pp pp ff
0.0000000000000000e+00 1.1653509596413000e+01 0.0000000000000000e+00
0.0000000000000000e+00 1.0092235353740000e+01 0.0000000000000000e+00
0.0000000000000000e+00 2.4290024512877000e+01 0.0000000000000000e+00
ITEM: ATOMS id type element xu yu zu fx fy fz
1 1 H 2.91338 9.3789 3.80431 0 0 0
2 1 H 8.74013 9.3789 3.80431 0 0 0
3 1 H 0 4.33278 3.80431 0 0 0
4 1 H 5.82675 4.33278 3.80431 0 0 0
5 1 H 4.9855 9.60654 0.5 0 0 0
6 1 H 10.8123 9.60654 0.5 0 0 0
7 1 H 2.07212 4.56042 0.5 0 0 0
8 1 H 7.89888 4.56042 0.5 0 0 0
9 1 H 0 0 1.86676 0 0 0
10 1 H 5.82675 0 1.86676 0 0 0
11 1 H 2.91338 5.04612 1.86676 0 0 0
12 1 H 8.74013 5.04612 1.86676 0 0 0
13 1 H 0.0179958 -0.0122182 6.53579 0.0268811 -0.0370965 0.0112177
14 1 H 5.82708 0.0163181 6.53508 0.000761395 0.0210412 0.0590255
15 1 H 2.91477 5.04688 6.53474 0.00316475 0.000291569 0.0397363
16 1 H 8.73787 5.04831 6.53562 -0.00353078 0.00298453 0.0332148
17 1 H 0.841256 9.60654 0.5 0 0 0
18 1 H 6.66801 9.60654 0.5 0 0 0
19 1 H 3.75463 4.56042 0.5 0 0 0
20 1 H 9.58139 4.56042 0.5 0 0 0
21 1 H 2.91338 8.4102 2.43216 0 0 0
22 1 H 8.74013 8.4102 2.43216 0 0 0
23 1 H 0 3.36408 2.43216 0 0 0
24 1 H 5.82675 3.36408 2.43216 0 0 0
25 1 H 2.91464 4.07695 5.16068 0.00170851 0.00573286 0.0253469
26 1 H 8.7386 4.07811 5.16148 -0.00244532 0.00782181 0.0257099
27 1 H -0.0726937 9.1327 5.14064 -0.0831315 -0.0060051 -0.0166014
28 1 H 5.8272 9.1176 5.17056 0.000962858 0.0221493 0.0504542
29 1 H 3.7523 7.92585 3.80431 0 0 0
30 1 H 9.57905 7.92585 3.80431 0 0 0
31 1 H 0.83892 2.87973 3.80431 0 0 0
32 1 H 6.66567 2.87973 3.80431 0 0 0
33 1 H 2.91338 6.01752 0.5 0 0 0
34 1 H 8.74013 6.01752 0.5 0 0 0
35 1 H 0 0.971399 0.5 0 0 0
36 1 H 5.82675 0.971399 0.5 0 0 0
37 1 H 4.98785 0.481433 5.15524 0.00582233 -0.00553422 0.0175444
38 1 H 10.8359 0.522539 5.1814 0.0119186 0.0843034 0.0569877
39 1 H 2.07429 5.53174 5.16132 0.00663458 -0.00180419 0.0255588
40 1 H 7.89954 5.5333 5.16108 0.000408384 0.00283338 0.0235862
41 1 H 2.07446 7.92585 3.80431 0 0 0
42 1 H 7.90121 7.92585 3.80431 0 0 0
43 1 H 4.98783 2.87973 3.80431 0 0 0
44 1 H 10.8146 2.87973 3.80431 0 0 0
45 1 H 3.76693 2.17322 8.42413 -0.0238723 -0.0130303 -0.0220149
46 1 H 9.5905 2.168 8.42859 -0.0249206 -0.0275418 -0.0177563
47 1 H 0.854368 7.21759 8.42051 -0.0166082 -0.0141022 -0.0338967
48 1 H 6.68042 7.21976 8.42256 0.0026977 -0.00026432 -0.015544
49 1 H 2.06155 2.17392 8.42252 -0.0229902 0.0121349 -0.00799496
50 1 H 7.88577 2.17371 8.42446 0.0202731 -0.0198829 -0.0216694
51 1 H 4.97553 7.22221 8.42243 0.00144156 0.00334476 -0.0155224
52 1 H 10.8032 7.22321 8.42078 -0.0098147 0.0118352 -0.0152536
53 1 H 2.91499 1.68138 7.08884 2.48229e-05 0.000144652 -0.0221366
54 1 H 8.73882 1.68012 7.09059 -0.00115195 -0.00707559 -0.0193447
55 1 H -0.000693249 6.7247 7.08617 0.00670663 0.0067794 -0.0171869
56 1 H 5.82724 6.72876 7.08792 0.000955837 0.00116787 -0.0222952
57 1 H 0.859464 0.454737 5.15023 -0.0086963 -0.07003 0.0191789
58 1 H 6.66734 0.481236 5.15561 0.00011656 -0.00472753 0.0173605
59 1 H 3.75452 5.53212 5.16074 -0.00284367 -0.00151514 0.0251807
60 1 H 9.57949 5.53262 5.16205 -0.00330486 0.0012254 0.025403
61 1 H 2.91313 0.697136 8.42346 -0.00275223 0.00528755 -0.0166343
62 1 H 8.73472 0.69485 8.42393 -0.00971402 -0.0565825 0.00179626
63 1 H -0.00432579 5.74364 8.42196 0.00272771 0.00904973 -0.0108626
64 1 H 5.82581 5.74449 8.42287 -0.00164553 0.00818827 -0.0176276
65 2 N 2.91338 8.4102 3.45939 0 0 0
66 2 N 8.74013 8.4102 3.45939 0 0 0
67 2 N 0 3.36408 3.45939 0 0 0
68 2 N 5.82675 3.36408 3.45939 0 0 0
69 2 N 2.91351 1.68166 8.11761 0.0564802 -0.00658355 -0.00369144
70 2 N 8.73735 1.6779 8.11945 -0.00302454 0.0902492 0.000298826
71 2 N -0.000127875 6.72779 8.11515 0.0144064 -0.0138997 -0.00753084
72 2 N 5.82733 6.72888 8.11672 0.00147269 -0.00885196 -0.00507126
73 2 N 0.00726169 -0.0010283 5.50636 0.0471915 0.0396101 0.0263717
74 2 N 5.82752 -0.000710805 5.50564 -0.00258754 -0.0275918 -0.036652
75 2 N 2.9147 5.04689 5.50583 0.00299328 0.000766807 -0.00709174
76 2 N 8.73901 5.04815 5.50647 -0.00157912 -0.00153262 0.00616115
77 2 N 0 0 0.84163 0 0 0
78 2 N 5.82675 0 0.84163 0 0 0
79 2 N 2.91338 5.04612 0.84163 0 0 0
80 2 N 8.74013 5.04612 0.84163 0 0 0
81 3 F 4.13387 7.70472 5.94583 0.00457063 -0.00140511 -0.00952956
82 3 F 9.95762 7.7052 5.94409 -0.000613018 -0.00763987 -0.00610021
83 3 F 1.21662 2.6609 5.94462 -0.000516972 0.00239093 -0.0114929
84 3 F 7.04839 2.6601 5.94581 0.00272319 0.000485127 -0.0105888
85 3 F 1.69284 9.1149 7.93473 -0.000324227 0.00045433 -0.0144537
86 3 F 7.5186 9.11414 7.93592 -0.000188454 -0.0037234 -0.00987468
87 3 F 4.60834 4.06836 7.93571 0.0033461 -0.00103825 -0.0104779
88 3 F 10.4304 4.0696 7.93266 -0.0030751 0.00181939 -0.0138665
89 3 F 4.13457 9.11498 7.93457 8.55489e-05 0.000880006 -0.012203
90 3 F 9.96043 9.11355 7.93472 -0.00128532 -0.00262658 -0.01262
91 3 F 1.21793 4.07034 7.93561 -0.000528699 0.00233928 -0.0107853
92 3 F 7.04995 4.0684 7.93527 0.00367393 -0.00113781 -0.0108104
93 3 F 2.91442 9.81731 5.94485 0.000408978 -0.00213463 -0.013211
94 3 F 8.73881 9.81747 5.94666 -0.00282881 -0.002334 -0.00892862
95 3 F 0.00708122 4.77728 5.94272 0.000105564 0.000673593 -0.0111706
96 3 F 5.82829 4.77203 5.94591 0.00228967 -1.33195e-05 -0.0101032
97 3 F 2.91338 3.09176 3.30107 0 0 0
98 3 F 8.74013 3.09176 3.30107 0 0 0
99 3 F 0 8.13788 3.30107 0 0 0
100 3 F 5.82675 8.13788 3.30107 0 0 0
101 3 F 4.1322 2.38573 1.31665 0 0 0
102 3 F 9.95896 2.38573 1.31665 0 0 0
103 3 F 1.21883 7.43185 1.31665 0 0 0
104 3 F 7.04558 7.43185 1.31665 0 0 0
105 3 F 1.69724 7.70327 5.94703 0.00552533 -0.00496978 -0.00996625
106 3 F 7.52114 7.70423 5.94591 -0.00244923 -0.00186279 -0.00994431
107 3 F 4.60965 2.65959 5.94587 0.00233455 1.87319e-05 -0.0101126
108 3 F 10.4321 2.66241 5.94588 -0.00129517 0.000964483 -0.0126716
109 3 F 2.91514 7.00082 7.93736 0.00457273 0.000354473 -0.00754023
110 3 F 8.73976 6.9999 7.93521 -0.00310678 -0.00183341 -0.0131764
111 3 F 0.00524083 1.95294 7.93626 -0.000510967 0.00362677 -0.0125949
112 3 F 5.82875 1.95353 7.93493 0.00220763 -0.00107331 -0.0119137
113 3 F 4.13423 0.97718 3.30107 0 0 0
114 3 F 9.96098 0.97718 3.30107 0 0 0
115 3 F 1.22085 6.0233 3.30107 0 0 0
116 3 F 7.04761 6.0233 3.30107 0 0 0
117 3 F 1.69455 2.38573 1.31665 0 0 0
118 3 F 7.52131 2.38573 1.31665 0 0 0
119 3 F 4.60793 7.43185 1.31665 0 0 0
120 3 F 10.4347 7.43185 1.31665 0 0 0
121 3 F 1.69253 0.97718 3.30107 0 0 0
122 3 F 7.51928 0.97718 3.30107 0 0 0
123 3 F 4.6059 6.0233 3.30107 0 0 0
124 3 F 10.4327 6.0233 3.30107 0 0 0
125 3 F 2.91338 0.274661 1.31665 0 0 0
126 3 F 8.74013 0.274661 1.31665 0 0 0
127 3 F 0 5.32078 1.31665 0 0 0
128 3 F 5.82675 5.32078 1.31665 0 0 0
129 4 Si 2.91338 1.68204 2.29879 0 0 0
130 4 Si 8.74013 1.68204 2.29879 0 0 0
131 4 Si 0 6.72816 2.29879 0 0 0
132 4 Si 5.82675 6.72816 2.29879 0 0 0
133 4 Si 2.91414 8.40901 6.95606 0.00587848 -0.000236738 -0.012995
134 4 Si 8.73873 8.40959 6.9567 -0.0035594 0.00189502 -0.0113782
135 4 Si -0.00271828 3.36552 6.95567 0.00140182 -0.00105356 -0.0127507
136 4 Si 5.82904 3.36398 6.9563 0.00226286 -0.000810158 -0.0137725
ITEM: TIMESTEP
40
ITEM: NUMBER OF ATOMS
136
ITEM: BOX BOUNDS xy xz yz pp pp ff
0.0000000000000000e+00 1.1653509596413000e+01 0.0000000000000000e+00
0.0000000000000000e+00 1.0092235353740000e+01 0.0000000000000000e+00
0.0000000000000000e+00 2.4290024512877000e+01 0.0000000000000000e+00
ITEM: ATOMS id type element xu yu zu fx fy fz
1 1 H 2.91338 9.3789 3.80431 0 0 0
2 1 H 8.74013 9.3789 3.80431 0 0 0
3 1 H 0 4.33278 3.80431 0 0 0
4 1 H 5.82675 4.33278 3.80431 0 0 0
5 1 H 4.9855 9.60654 0.5 0 0 0
6 1 H 10.8123 9.60654 0.5 0 0 0
7 1 H 2.07212 4.56042 0.5 0 0 0
8 1 H 7.89888 4.56042 0.5 0 0 0
9 1 H 0 0 1.86676 0 0 0
10 1 H 5.82675 0 1.86676 0 0 0
11 1 H 2.91338 5.04612 1.86676 0 0 0
12 1 H 8.74013 5.04612 1.86676 0 0 0
13 1 H 0.0239254 -0.0194178 6.53916 0.0270862 -0.0334326 0.0156444
14 1 H 5.82717 0.0201565 6.53968 0.00034359 0.018254 0.0203623
15 1 H 2.91526 5.04701 6.53933 0.00218824 0.000592262 0.020915
16 1 H 8.73728 5.04885 6.54027 -0.00263428 0.00252641 0.02104
17 1 H 0.841256 9.60654 0.5 0 0 0
18 1 H 6.66801 9.60654 0.5 0 0 0
19 1 H 3.75463 4.56042 0.5 0 0 0
20 1 H 9.58139 4.56042 0.5 0 0 0
21 1 H 2.91338 8.4102 2.43216 0 0 0
22 1 H 8.74013 8.4102 2.43216 0 0 0
23 1 H 0 3.36408 2.43216 0 0 0
24 1 H 5.82675 3.36408 2.43216 0 0 0
25 1 H 2.91495 4.07716 5.16519 0.00132921 0.000945053 0.0207771
26 1 H 8.73812 4.07868 5.16614 -0.00229631 0.00242798 0.0212968
27 1 H -0.0878751 9.13603 5.13901 -0.065509 0.0158622 -0.00682083
28 1 H 5.82735 9.11694 5.1786 0.000696719 -0.00356889 0.0372655
29 1 H 3.7523 7.92585 3.80431 0 0 0