ITEM: TIMESTEP
0
ITEM: NUMBER OF ATOMS
216
ITEM: BOX BOUNDS pp pp ff
0.0000000000000000e+00 1.1653169955468799e+01
0.0000000000000000e+00 1.0091941216053600e+01
0.0000000000000000e+00 3.8509432000000004e+01
ITEM: ATOMS id type element xu yu zu fx fy fz
1 1 F 2.46469 2.68305 0.816065 0 0 0
2 1 F 8.29205 9.41168 7.40122 0.0393458 0.0157329 -0.0381734
3 1 F 5.37876 4.36571 7.40122 0.0284834 0.0169804 -0.120357
4 1 F 11.2053 4.36571 7.40122 0.107978 -0.0463028 -0.160996
5 1 F 2.46381 1.27407 2.80035 0 0 0
6 1 F 8.2904 1.27407 2.80035 0 0 0
7 1 F 5.37711 6.32004 2.80035 0 0 0
8 1 F 11.2037 6.32004 2.80035 0 0 0
9 1 F 3.68446 0.570344 0.816065 0 0 0
10 1 F 2.46547 9.41168 7.40122 -0.00686341 -0.0849486 -0.0381476
11 1 F 9.51104 0.570344 0.816065 0 0 0
12 1 F 6.59775 5.61631 0.816065 0 0 0
13 1 F 9.51102 6.10764 13.5268 -0.258914 -0.271826 0.136657
14 1 F 8.35166 8.07087 12.108 0.0618272 0.493584 0.429057
15 1 F 6.17009 7.90817 13.6655 -0.393044 -0.0639646 -0.766214
16 1 F 7.32945 5.94494 15.0843 0.373614 0.647403 -0.525028
17 1 F 8.47202 8.10267 14.595 0.124485 -0.279381 -0.378861
18 1 F 5.7864 7.2192 18.5094 -0.74234 0.617115 0.150048
19 1 F 6.48299 7.96108 16.0243 -0.351775 -0.100063 1.1778
20 1 F 0.771166 5.61631 0.816065 0 0 0
21 1 F 7.81875 2.95475 5.41686 0.054677 -0.0147327 -0.06862
22 1 F 1.99216 2.95475 5.41686 -0.00410977 0.00549678 -0.0566496
23 1 F 10.732 8.00072 5.41686 0.0228232 -0.00675558 -0.0292889
24 1 F 0.771166 8.43426 2.80035 0 0 0
25 1 F 9.51104 3.38829 2.80035 0 0 0
26 1 F 3.68446 3.38829 2.80035 0 0 0
27 1 F 2.4625 8.00239 5.41686 -0.015045 -0.0200298 -0.0279113
28 1 F 8.28909 8.00239 5.41686 -0.00222314 -0.00774796 -0.0407809
29 1 F 5.37579 2.95642 5.41686 -0.0120643 -0.00995067 -0.0797541
30 1 F 11.2024 2.95642 5.41686 -0.0292709 -0.00372633 -0.0521221
31 1 F 3.68348 7.29864 7.40122 -0.0330985 -0.0157759 0.0583622
32 1 F 9.51007 7.29864 7.40122 0.0616102 0.0973797 -0.161639
33 1 F 0.770192 2.25267 7.40122 -0.0448271 0.0331172 -0.0420823
34 1 F 6.59678 2.25267 7.40122 0.0489416 0.00327269 -0.0904249
35 1 F 11.2046 7.72902 0.816065 0 0 0
36 1 F 5.37798 7.72902 0.816065 0 0 0
37 1 F 8.29127 2.68305 0.816065 0 0 0
38 1 F 7.8184 6.32004 2.80035 0 0 0
39 1 F 1.99181 6.32004 2.80035 0 0 0
40 1 F 10.7317 1.27407 2.80035 0 0 0
41 1 F 4.9051 1.27407 2.80035 0 0 0
42 1 F 4.90545 8.00072 5.41686 -0.0145287 -0.0143582 -0.042879
43 1 F 4.09315 9.14421 15.7076 -0.0108855 -0.672022 -0.101914
44 1 F 3.39656 8.40234 18.1927 0.81999 -0.388822 0.130594
45 1 F 5.54408 9.55764 17.6887 0.349257 0.30735 0.322615
46 1 F 3.74497 8.31964 12.0801 0.15642 -0.44272 0.137786
47 1 F 2.80777 3.52281 16.6696 0.0986196 -0.00701578 0.428131
48 1 F 1.24846 4.84776 15.4533 -0.157334 0.536066 -0.756739
49 1 F 4.97787 1.96733 16.7647 0.679747 -0.118849 -0.585934
50 1 F 11.3958 5.78226 17.6651 -0.760172 0.32073 0.207235
51 1 F 8.92275 0.870592 18.4765 -0.569498 0.202325 -0.247602
52 1 F 9.3242 0.547212 13.9836 0.118844 -0.261454 0.469277
53 1 F -0.007548 0.510327 18.4798 0.0583213 0.413353 -0.0650886
54 1 F 5.79395 5.34945 16.9802 -0.378751 -0.105401 -0.645359
55 1 F 6.18856 10.1135 15.0535 0.603058 1.2191 -0.790551
56 1 F 8.15759 7.41812 18.4766 0.824332 -0.329282 0.049431
57 1 F 2.30404 10.1085 16.9449 -1.10041 0.256309 -0.45664
58 1 F 11.7 2.51442 13.2995 0.387642 0.15936 -0.548426
59 1 F 7.22587 3.92328 18.3995 0.0234164 -0.462671 0.706266
60 1 F 10.9435 8.89059 16.3803 0.0870081 0.484647 0.00301144
61 1 F 11.3209 7.51175 14.1735 0.134313 0.580747 -0.21435
62 1 F 3.82405 6.30179 15.0033 0.32585 0.286925 0.156345
63 1 F 1.12347 7.54145 18.4784 -0.161699 0.633802 0.448165
64 1 F 4.34037 3.99924 14.0296 0.252779 -0.387745 0.25061
65 1 F 2.82759 1.64227 14.5702 -0.072648 0.0606261 0.684266
66 1 F 2.6788 1.8058 18.4684 -0.0635184 0.509236 0.355811
67 1 F 6.59775 8.43426 2.80035 0 0 0
68 1 F 4.60794 3.67199 18.3836 -0.386788 0.300623 0.685136
69 1 F 0.817419 3.71565 18.1535 0.448894 -0.631776 0.360092
70 1 F 1.12704 8.45435 11.4973 -0.168256 -0.171016 -0.217167
71 1 F 1.023 5.77525 11.3454 0.721459 -0.104265 -0.0374494
72 1 F 3.64093 5.64055 11.9282 0.17566 0.0966361 -0.00791196
73 1 F 2.0306 6.97217 13.2826 0.0851203 -0.0407906 -0.36901
74 1 F 9.9106 3.70818 17.7954 -0.364833 -0.326096 0.0230806
75 1 F 11.5043 2.93512 15.777 -0.27631 -0.527855 0.26835
76 1 F 9.42667 3.07888 14.0816 -0.32609 0.509514 0.405296
77 1 F 7.83301 3.85194 16.1 0.261037 -0.592581 -0.139393
78 1 F 10.0262 4.93381 15.6309 -0.156154 -0.369053 -0.0319504
79 1 F 10.4894 5.92828 11.3538 -0.675257 -0.182977 -0.641805
80 1 F 9.53391 3.42561 11.5414 0.21364 -0.366914 -0.108779
81 1 F 7.25743 4.20536 10.3493 -0.56145 -0.374974 -0.133866
82 1 F 8.21289 6.70803 10.1617 -0.312582 -0.00385653 -0.8008
83 1 F 9.50715 4.71698 9.41248 0.0953223 -0.0457243 -0.0130224
84 1 F 4.48584 2.9356 10.5959 0.0933781 0.108252 -0.310916
85 1 F 4.32282 0.255417 10.6348 0.12481 0.104191 -0.460057
86 1 F 2.39627 0.399633 12.5 0.147399 0.340934 -0.662103
87 1 F 2.55929 3.07981 12.4612 -0.0266753 -0.244174 -0.82159
88 1 F 2.3231 1.71882 10.3893 -0.153099 0.0143134 -0.300805
89 1 F 2.74656 5.58184 18.0686 0.378656 -0.0704703 -0.148554
90 1 F 4.90423 2.68305 0.816065 0 0 0
91 1 F 6.894 4.04596 13.7176 0.173975 -0.411853 -1.03946
92 1 F 1.99093 7.72902 0.816065 0 0 0
93 1 F 6.59871 5.07124 5.41686 0.0156353 0.0361741 -0.0742456
94 1 F 0.772129 5.07124 5.41686 -0.00628712 0.032427 -0.0423741
95 1 F 9.51201 10.1172 5.41686 0.010879 0.00686754 -0.0414313
96 1 F 3.68542 10.1172 5.41686 -0.0115015 -0.011849 -0.0591727
97 1 F 10.7308 2.68305 0.816065 0 0 0
98 1 F 1.99113 4.36402 7.40122 -0.0366418 0.0302211 -0.0253299
99 1 F 10.731 9.41 7.40122 -0.0116068 -0.00379421 -0.0191003
100 1 F 4.90442 9.41 7.40122 -0.0344884 -0.0862067 -0.109673
101 1 F 7.81752 7.72902 0.816065 0 0 0
102 1 F 7.81771 4.36402 7.40122 -0.0936713 -0.0486905 -0.281119
103 2 H 9.51039 0.993428 7.92167 -0.00992338 0.00312303 -0.0135304
104 2 H 8.04454 0.739884 18.1469 0.101748 -0.429465 0.0750606
105 2 H 2.83141 2.47207 7.92167 0.0419022 -0.0345645 0.117053
106 2 H 10.7614 6.08908 18.2979 0.310625 -0.0414258 -0.375901
107 2 H 7.4393 0.782748 4.7083 -0.00563744 0.00314465 0.032398
108 2 H 5.81814 2.40423 16.7735 -0.351081 0.0252116 0.046804
109 2 H 4.52601 5.82872 4.7083 0.00224209 -0.00521195 0.0326592
110 2 H 0.460146 5.12147 15.0054 0.436543 0.242596 0.306281
111 2 H 10.3526 5.82872 4.7083 -0.0107945 -0.00612054 0.0257914
112 2 H 3.68381 0.993427 7.92167 0.0175841 0.0427587 0.127835
113 2 H 0.770517 6.0394 7.92167 -0.0374314 -0.0348252 0.0211507
114 2 H 3.68446 8.70677 1.93343 0 0 0
115 2 H 1.6121 9.90325 0 0 0 0
116 2 H 7.43869 9.90325 0 0 0 0
117 2 H 4.52539 4.85728 0 0 0 0
118 2 H 10.352 4.85728 0 0 0 0
119 2 H 6.59775 7.02478 6.59028 -0.027231 -0.0157876 0.0397354
120 2 H 9.51104 8.70677 1.93343 0 0 0
121 2 H 0.771166 3.6608 1.93343 0 0 0
122 2 H 6.59775 3.6608 1.93343 0 0 0
123 2 H 8.66944 5.82864 4.7083 0.00105681 -0.0057752 0.028117
124 2 H 9.51104 9.67408 3.30385 0 0 0
125 2 H 0.771166 4.62811 3.30385 0 0 0
126 2 H 6.5971 6.0394 7.92167 0.0452226 7.42522e-06 0.0991953
127 2 H 8.77491 0.664407 14.7462 -0.305188 -0.390062 -0.53965
128 2 H 3.68446 1.97881 6.59028 0.017744 -0.00406006 0.0507268
129 2 H 0.336895 1.38767 18.3868 0.00459515 -0.32083 0.0512113
130 2 H 8.67333 8.22312 3.30385 0 0 0
131 2 H 2.0897 2.16693 14.8481 0.1841 0.0359353 -0.192056
132 2 H 5.76004 3.17715 3.30385 0 0 0
133 2 H 4.56883 3.58533 14.8503 -0.169282 0.134284 -0.208464
134 2 H 11.5866 3.17715 3.30385 0 0 0
135 2 H 0.627155 8.31923 18.2645 0.134071 -0.0392527 -0.0631149
136 2 H 4.53815 2.47094 7.92167 -0.0153068 -0.00585316 0.138276
137 2 H 4.33485 6.50277 14.2315 -0.209412 -0.200007 0.233054
138 2 H 10.3647 2.47094 7.92167 -0.00607952 0.0522686 0.0516784
139 2 H 10.9959 8.35371 13.8863 0.143104 -0.441643 0.173433
140 2 H 1.62486 7.51691 7.92167 -0.00767465 0.0330434 -0.0515009
141 2 H 10.7712 9.7521 16.0265 -0.0813688 -0.31484 0.139546
142 2 H 7.45144 7.51691 7.92167 0.0121593 -0.075183 0.14631
143 2 H 7.70947 3.1127 18.4776 0.0565165 0.388692 0.213535
144 2 H 3.68446 9.67408 3.30385 0 0 0
145 2 H 11.6287 3.25848 12.7178 0.01926 -0.405923 0.233869
146 2 H 8.658 2.47207 7.92167 -0.0351416 0.0671539 0.0680174
147 2 H 1.40973 9.92687 16.6915 0.341059 -0.0938703 0.131463
148 2 H 5.74471 7.51804 7.92167 0.0303711 -0.00341698 0.0115523
149 2 H 8.26711 6.5125 18.2218 -0.27817 0.235785 -0.0404996
150 2 H 11.5713 7.51804 7.92167 -0.0317976 0.000257515 0.0367499
151 2 H 5.70275 10.1037 14.2405 0.108372 -0.183359 0.487333
152 2 H 6.59775 4.62811 3.30385 0 0 0
153 2 H 4.88171 5.60136 17.0174 0.0931419 -0.887336 -0.131938
154 2 H 9.51104 1.97881 6.59028 -0.00875939 -0.00826362 0.0187073
155 2 H 0.771166 7.02478 6.59028 0.0180352 0.00115483 0.0306528
156 2 H 5.75681 9.90325 0 0 0 0
157 2 H 1.61272 0.782748 4.7083 0.00256314 0.00415716 0.032518
158 2 H 2.84352 4.85728 0 0 0 0
159 2 H 9.51104 6.31382 0 0 0 0
160 2 H 3.68446 6.31382 0 0 0 0
161 2 H 3.68451 4.37102 4.7083 0.00408403 -0.00414313 0.0369576
162 2 H 0.771214 9.41699 4.7083 -0.00111355 0.0058411 0.0266635
163 2 H 6.59775 1.26785 0 0 0 0
164 2 H 6.5978 9.41699 4.7083 0.000483087 0.00428214 0.0315739
165 2 H 5.75615 0.782665 4.7083 -0.0013674 0.00622084 0.0373884
166 2 H 11.5827 0.782665 4.7083 0.00300916 -0.00068895 0.0284206
167 2 H 2.84286 5.82864 4.7083 0.00518723 -0.00626351 0.0291295
168 2 H 2.84674 8.22312 3.30385 0 0 0
169 2 H 4.52217 8.22312 3.30385 0 0 0
170 2 H 10.3488 8.22312 3.30385 0 0 0
171 2 H 9.51109 4.37102 4.7083 -0.00332849 0.00612184 0.0253314
172 2 H 9.51104 5.34279 6.07565 -0.0077721 0.000717235 0.0368444
173 2 H 3.68446 5.34279 6.07565 0.00905793 -0.0143558 0.0271502
174 2 H 6.59775 0.296822 6.07565 -0.0074163 0.00868335 0.0325549
175 2 H 0.771166 0.296822 6.07565 0.00450416 0.00460619 0.0231116
176 2 H 1.60888 3.17715 3.30385 0 0 0
177 2 H 7.43546 3.17715 3.30385 0 0 0
178 2 H 9.51104 5.34279 1.36921 0 0 0
179 2 H 3.68446 5.34279 1.36921 0 0 0
180 2 H 6.59775 0.296822 1.36921 0 0 0
181 2 H 0.771166 0.296822 1.36921 0 0 0
182 2 H 7.15592 3.79971 12.8413 -0.356713 -0.412893 0.399377
183 2 H 8.67011 4.85728 0 0 0 0
184 2 H 0.771166 1.26785 0 0 0 0
185 2 H 11.5834 9.90325 0 0 0 0
186 3 I 2.43583 7.05849 11.4824 -0.092981 0.20115 0.112037
187 3 I 4.85112 7.97985 17.0234 -0.217409 0.916195 0.371982
188 3 I 8.78043 5.11814 11.0627 1.0851 0.23101 -0.436121
189 3 I 3.60507 1.6601 11.718 -0.647092 0.222354 1.66774
190 3 I 7.74791 6.84729 13.4496 -0.430314 0.667976 1.68575
191 3 I 2.69873 3.71891 18.5031 0.0602424 -0.142345 -0.140658
192 3 I 9.61617 3.16755 15.9836 0.12381 0.188103 -0.0794796
193 4 N 9.51104 1.97881 7.62088 0.0136426 -0.0399859 -0.0709259
194 4 N 3.68446 1.97881 7.62088 -0.00471987 0.0117573 -0.208637
195 4 N 6.59775 3.6608 2.95976 0 0 0
196 4 N 0.771166 3.6608 2.95976 0 0 0
197 4 N 0.771167 0.296821 5.04741 0.0026958 -0.00664717 0.00142103
198 4 N 0.771166 0.296822 0.342545 0 0 0
199 4 N 3.68446 8.70677 2.95976 0 0 0
200 4 N 9.51104 5.34279 0.342545 0 0 0
201 4 N 6.59775 7.02478 7.62088 -0.0161522 0.0368269 -0.168848
202 4 N 6.59775 0.296822 0.342545 0 0 0
203 4 N 9.51104 8.70677 2.95976 0 0 0
204 4 N 9.51104 5.34279 5.04741 -0.00138131 -0.00469604 0.0257959
205 4 N 3.68446 5.34279 5.04741 0.000139118 0.00848635 -0.000281229
206 4 N 6.59775 0.296822 5.04741 0.000850952 -0.0086035 2.74362e-05
207 4 N 0.771166 7.02478 7.62088 -0.0422378 -0.0317156 -0.0105317
208 4 N 3.68446 5.34279 0.342545 0 0 0
209 5 Si 9.51104 8.70677 6.42034 -0.0442081 -0.0556015 0.20147
210 5 Si 3.68446 1.97881 1.80169 0 0 0
211 5 Si 9.51104 1.97881 1.80169 0 0 0
212 5 Si 0.771166 7.02478 1.80169 0 0 0
213 5 Si 6.59775 7.02478 1.80169 0 0 0
214 5 Si 3.68446 8.70677 6.42034 0.0767465 0.132403 0.187897
215 5 Si 0.771166 3.6608 6.42034 0.0133878 -0.0140763 0.206612
216 5 Si 6.59775 3.6608 6.42034 -0.065108 0.0158337 0.335548
ITEM: TIMESTEP
100
ITEM: NUMBER OF ATOMS
216
ITEM: BOX BOUNDS pp pp ff
0.0000000000000000e+00 1.1653169955468799e+01
0.0000000000000000e+00 1.0091941216053600e+01
0.0000000000000000e+00 3.8509432000000004e+01
ITEM: ATOMS id type element xu yu zu fx fy fz
1 1 F 2.46469 2.68305 0.816065 0 0 0
2 1 F 8.33848 9.57483 7.33287 -0.126043 -0.0584171 0.359601
3 1 F 5.43158 4.4753 7.29917 -0.00102517 -0.131652 0.182053
4 1 F 11.1945 4.43709 7.23658 -0.0772007 0.0706636 0.1728
5 1 F 2.46381 1.27407 2.80035 0 0 0
6 1 F 8.2904 1.27407 2.80035 0 0 0
7 1 F 5.37711 6.32004 2.80035 0 0 0
8 1 F 11.2037 6.32004 2.80035 0 0 0
9 1 F 3.68446 0.570344 0.816065 0 0 0
10 1 F 2.46439 9.4933 7.37952 -0.108014 0.201873 0.109546
11 1 F 9.51104 0.570344 0.816065 0 0 0
12 1 F 6.59775 5.61631 0.816065 0 0 0
13 1 F 9.43599 6.03795 13.7227 -0.31152 0.494167 -0.0629399
14 1 F 8.73609 8.4872 12.4686 -0.0989142 -0.186422 0.18755
15 1 F 6.237 8.1994 13.338 -0.316225 0.47099 0.266657
16 1 F 7.03588 6.10665 14.9417 -0.00358454 0.131236 -0.413594
17 1 F 8.44487 8.15391 14.9299 0.166096 -0.117622 -0.699269
18 1 F 5.85381 7.34415 18.7453 -0.166066 0.0203348 0.485875
19 1 F 6.69224 8.28826 16.5842 -0.579935 0.100381 0.0987969
20 1 F 0.771166 5.61631 0.816065 0 0 0
21 1 F 7.7569 2.95028 5.25899 -0.0157166 -0.32824 -0.0470947
22 1 F 2.15456 3.0038 5.4622 -0.348364 -0.164135 0.0893568
23 1 F 10.86 8.13873 5.45947 -0.100925 -0.159467 0.305666
24 1 F 0.771166 8.43426 2.80035 0 0 0
25 1 F 9.51104 3.38829 2.80035 0 0 0
26 1 F 3.68446 3.38829 2.80035 0 0 0
27 1 F 2.42571 8.00683 5.45873 -0.416679 0.0644573 -0.405422
28 1 F 8.3796 8.07942 5.40347 -0.221648 -0.0634027 -0.154407
29 1 F 5.28292 3.07825 5.33673 0.105484 -0.261219 -0.0587542
30 1 F 11.3259 2.93544 5.35423 -0.0699531 -0.0982618 -0.374547
31 1 F 3.51203 7.30073 7.44293 -0.0478195 -0.131429 0.363968
32 1 F 9.48303 7.35782 7.31752 0.332804 0.127485 0.220211
33 1 F 0.696734 2.29055 7.37802 0.172125 0.0479307 -0.0931335
34 1 F 6.52506 2.24655 7.25077 -0.0613095 0.270468 -0.121156
35 1 F 11.2046 7.72902 0.816065 0 0 0
36 1 F 5.37798 7.72902 0.816065 0 0 0
37 1 F 8.29127 2.68305 0.816065 0 0 0
38 1 F 7.8184 6.32004 2.80035 0 0 0
39 1 F 1.99181 6.32004 2.80035 0 0 0
40 1 F 10.7317 1.27407 2.80035 0 0 0
41 1 F 4.9051 1.27407 2.80035 0 0 0
42 1 F 4.80147 7.83392 5.48591 0.264117 0.269592 -0.22101
43 1 F 4.31819 8.9483 15.6546 -0.104196 -0.183839 0.309893
44 1 F 3.30549 8.25559 18.2479 0.0408778 -0.525108 -0.183708
45 1 F 5.0707 9.68974 17.8063 0.764447 0.10858 0.336975
46 1 F 3.73765 8.4386 12.0217 -0.23386 -0.022401 0.0786027
47 1 F 2.96615 3.34977 16.9155 -0.150208 0.219347 0.899542
48 1 F 1.37973 5.43892 14.7883 -0.522872 0.355632 -0.0670235
49 1 F 5.63506 2.27352 16.4791 0.600232 -0.586286 -0.0523727
50 1 F 11.1304 6.33306 17.6413 0.497712 0.192965 0.0642319
51 1 F 8.11112 0.567194 18.2696 1.47033 0.618347 1.72915
52 1 F 9.23019 0.331535 14.2626 -0.194003 -0.434683 -0.0815818
53 1 F 0.0748228 0.665766 18.7039 -0.730297 -0.345293 0.345207
54 1 F 5.45364 4.8312 16.4413 0.219479 -0.801219 0.476758
55 1 F 6.45566 11.2405 14.3303 -0.0507441 -0.119308 0.00876997
56 1 F 8.63738 7.18363 18.2904 0.272055 0.0196568 -0.0222412
57 1 F 1.25543 9.67159 16.2421 0.488708 0.0663837 0.388762
58 1 F 11.9499 2.19221 13.0921 -0.413326 -0.0624535 -0.0150264
59 1 F 7.29957 3.81529 19.3957 0.316982 -0.79254 0.0102666
60 1 F 10.6691 9.18241 17.0794 -0.558364 -0.320198 -0.0537662
61 1 F 11.6831 8.15915 14.5657 0.913215 -0.840603 -0.909123
62 1 F 3.78004 6.32136 15.1051 0.297256 0.205319 0.1915
63 1 F 0.637008 7.9507 19.1987 -0.0460021 0.227006 -0.407699
64 1 F 4.34363 3.54842 14.4728 0.00443188 0.424042 -1.48903
65 1 F 2.94909 1.62136 14.8437 -0.0706618 -0.770865 0.142235
66 1 F 2.85306 1.72364 18.8044 -0.612469 1.40866 0.0837886
67 1 F 6.59775 8.43426 2.80035 0 0 0
68 1 F 4.68031 3.51113 18.9556 -1.214 0.61022 -0.298651
69 1 F 0.842472 3.52437 18.307 0.174079 0.0284274 0.049212
70 1 F 0.908714 8.06735 11.1243 0.0329608 0.224215 0.00945991
71 1 F 1.49156 5.50864 11.2169 0.0155479 0.336044 -0.0262712
72 1 F 3.96431 5.88533 11.8382 -0.13608 0.165565 0.192249
73 1 F 1.99634 7.07836 13.1342 0.17545 0.276785 -0.544115
74 1 F 9.41369 3.37252 17.8836 0.273018 -0.717985 -0.263265
75 1 F 11.417 2.54174 15.9888 -0.221876 0.14215 -0.0245961
76 1 F 9.43892 3.16153 14.1575 0.11053 -0.141852 -0.288323
77 1 F 7.75822 3.46589 16.0061 -1.25646 0.585194 -0.209457
78 1 F 9.9887 4.64214 15.9757 0.0594672 -0.130014 -0.118644
79 1 F 10.4388 5.92903 11.0508 -0.58476 -0.614052 -0.2066
80 1 F 9.48318 3.27634 11.5667 0.112581 -0.164524 0.0640774
81 1 F 7.26502 3.96677 10.2633 -0.318221 -0.228706 -0.258534
82 1 F 8.15576 6.47351 9.80692 0.0938307 -0.50869 0.507586
83 1 F 9.54145 4.2675 9.37285 0.276114 0.347648 -0.331156
84 1 F 4.52126 3.17059 10.6437 -0.206554 -0.0863182 -0.110245
85 1 F 4.57015 0.594651 10.5506 -0.196322 -0.0610276 0.0551521
86 1 F 2.263 0.57103 12.2426 -0.135734 -0.242295 -0.2105
87 1 F 2.43228 3.29517 12.1627 0.148883 -0.279311 -0.0639727
88 1 F 2.47043 1.81131 10.1687 -0.746085 0.102951 -0.811187
89 1 F 2.85708 5.47263 18.0891 -0.00166768 1.0544 -0.241853
90 1 F 4.90423 2.68305 0.816065 0 0 0
91 1 F 6.71438 3.66455 13.0199 -0.202804 0.780443 0.120026
92 1 F 1.99093 7.72902 0.816065 0 0 0
93 1 F 6.59908 5.11203 5.30186 0.155396 -0.0667506 -0.0894092
94 1 F 0.838255 5.07661 5.38569 0.207553 0.00500775 -0.269519
95 1 F 9.56798 10.1461 5.39575 0.340876 0.508342 -0.0880095
96 1 F 3.7515 10.0737 5.41135 -0.0151855 -0.203889 0.0770684
97 1 F 10.7308 2.68305 0.816065 0 0 0
98 1 F 1.96519 4.36521 7.43221 0.228441 0.209121 0.0461827
99 1 F 10.7672 9.50299 7.53304 -0.453986 -0.339564 -0.637995
100 1 F 4.91072 9.29558 7.40128 -0.0147979 0.0303983 -0.10128
101 1 F 7.81752 7.72902 0.816065 0 0 0
102 1 F 7.86598 4.31407 7.17091 -0.0713084 0.09507 0.24786
103 2 H 9.03213 1.31504 7.91596 -0.160697 0.00427571 0.061259
104 2 H 7.5927 0.44582 17.541 -1.47617 -0.724236 -1.71321
105 2 H 3.56726 2.74765 8.44526 -0.199595 -0.102569 -0.0901131
106 2 H 10.4834 5.91196 17.109 -0.160567 -0.185269 -0.249032
107 2 H 7.42715 0.876949 5.05542 -0.701003 -0.335849 0.119994
108 2 H 6.32611 1.81997 15.9611 -1.10384 0.635203 0.0570932
109 2 H 4.47822 6.08987 5.18971 -0.152728 -0.355662 -0.072209
110 2 H 1.06144 6.11321 14.1844 0.129392 -0.492551 0.496632
111 2 H 10.1391 5.91938 4.50447 -0.151564 -0.437967 0.288475
112 2 H 3.3531 1.12263 8.03802 -0.373528 -0.719093 0.210374
113 2 H 0.230617 6.13453 8.06165 0.569803 0.993376 -0.232265
114 2 H 3.68446 8.70677 1.93343 0 0 0
115 2 H 1.6121 9.90325 0 0 0 0
116 2 H 7.43869 9.90325 0 0 0 0
117 2 H 4.52539 4.85728 0 0 0 0
118 2 H 10.352 4.85728 0 0 0 0
119 2 H 7.28391 7.07157 6.86156 -0.521991 0.00872067 0.275606
120 2 H 9.51104 8.70677 1.93343 0 0 0
121 2 H 0.771166 3.6608 1.93343 0 0 0
122 2 H 6.59775 3.6608 1.93343 0 0 0
123 2 H 8.60257 5.65943 5.18231 0.420426 -0.0857631 -0.0948348
124 2 H 9.51104 9.67408 3.30385 0 0 0
125 2 H 0.771166 4.62811 3.30385 0 0 0
126 2 H 6.08594 6.02923 7.5168 0.060032 0.301722 0.0404166
127 2 H 9.00611 -0.615456 14.2267 0.180376 0.838943 0.245423
128 2 H 3.44076 2.27772 6.82745 -0.0953078 -0.0129573 0.300826
129 2 H 0.547607 1.35484 18.2936 0.471372 0.572699 -0.396374
130 2 H 8.67333 8.22312 3.30385 0 0 0
131 2 H 2.95114 0.855362 15.4005 -0.200037 0.17311 -0.22519
132 2 H 5.76004 3.17715 3.30385 0 0 0
133 2 H 4.84093 3.56848 15.2576 0.240497 0.161105 0.872712
134 2 H 11.5866 3.17715 3.30385 0 0 0
135 2 H 0.210644 7.81822 18.3543 -0.0305438 -0.481768 0.638173
136 2 H 4.82378 1.91948 7.71455 -0.471099 -0.0672784 0.0455887
137 2 H 2.83966 6.43207 15.0937 -0.229052 -0.459257 -0.137349
138 2 H 10.5495 1.98598 7.60776 -0.547234 0.266309 -0.339851
139 2 H 10.9416 8.47657 15.0032 -1.03655 0.468792 0.767406
140 2 H 1.63602 6.87719 7.47269 0.468548 0.206756 -0.0949176
141 2 H 10.6484 9.92641 17.6829 0.311786 0.0741908 0.343944
142 2 H 7.03983 7.05917 8.49469 -0.232434 -0.249565 -0.386077
143 2 H 7.77029 3.00277 19.2067 -0.302613 0.793044 -0.0330467
144 2 H 3.68446 9.67408 3.30385 0 0 0
145 2 H 12.4354 2.90438 13.4526 0.186406 0.122243 0.147002
146 2 H 9.23912 3.01915 7.94047 -0.22532 0.302906 0.357516
147 2 H 0.581594 9.2678 16.8022 0.343742 0.361696 -0.489226
148 2 H 5.86477 7.73594 7.49046 -0.321216 0.370014 -0.090605
149 2 H 7.84707 6.6836 18.2626 -0.303727 -0.0421016 0.0624238
150 2 H 12.1642 7.79955 8.34562 -0.0683591 0.709421 0.461589
151 2 H 7.16212 11.1985 13.706 0.199575 0.00356862 0.146501
152 2 H 6.59775 4.62811 3.30385 0 0 0
153 2 H 5.72335 3.97877 16.8182 0.00963347 0.518091 -0.0501803
154 2 H 9.20321 2.17356 6.54183 0.207564 -0.00531475 -0.328377
155 2 H 0.0815481 7.22481 6.83754 0.594724 0.302158 0.28325
156 2 H 5.75681 9.90325 0 0 0 0
157 2 H 1.49877 0.885123 4.54496 0.297641 0.0327096 0.00594267
158 2 H 2.84352 4.85728 0 0 0 0
159 2 H 9.51104 6.31382 0 0 0 0
160 2 H 3.68446 6.31382 0 0 0 0
161 2 H 4.04211 4.44814 4.827 0.0173939 0.298684 0.0507967
162 2 H 0.696067 9.53436 4.65914 -0.161483 -0.44062 0.0558213
163 2 H 6.59775 1.26785 0 0 0 0
164 2 H 6.85396 9.43026 4.78053 -0.422649 0.405301 0.170324
165 2 H 5.85296 0.702273 4.54687 -0.949116 0.269185 -0.59164
166 2 H 11.6279 0.888964 5.22208 0.864506 -0.763619 -0.0632188
167 2 H 2.99192 5.7461 4.55086 -0.508395 0.0759567 -0.370874
168 2 H 2.84674 8.22312 3.30385 0 0 0
169 2 H 4.52217 8.22312 3.30385 0 0 0
170 2 H 10.3488 8.22312 3.30385 0 0 0
171 2 H 9.48974 4.37343 4.68687 0.109935 -1.10015 -0.625996
172 2 H 9.96816 5.19866 6.03786 0.295664 -0.0603137 0.215472
173 2 H 3.33435 5.26967 6.09787 -0.102074 -0.0738256 0.0732578
174 2 H 6.28392 0.222348 6.0923 -0.290032 -0.0605098 0.474621
175 2 H 1.28633 0.191084 6.04937 0.212738 -0.251996 0.518392
176 2 H 1.60888 3.17715 3.30385 0 0 0
177 2 H 7.43546 3.17715 3.30385 0 0 0
178 2 H 9.51104 5.34279 1.36921 0 0 0
179 2 H 3.68446 5.34279 1.36921 0 0 0
180 2 H 6.59775 0.296822 1.36921 0 0 0
181 2 H 0.771166 0.296822 1.36921 0 0 0
182 2 H 6.08723 4.25723 13.4335 0.0443869 -0.743636 -0.0957648
183 2 H 8.67011 4.85728 0 0 0 0
184 2 H 0.771166 1.26785 0 0 0 0
185 2 H 11.5834 9.90325 0 0 0 0
186 3 I 2.55182 7.09895 11.3477 0.502175 -0.442708 -0.533405
187 3 I 4.88986 7.94137 17.2092 -0.304137 0.958367 -0.908364
188 3 I 8.76674 4.90811 10.9356 0.46627 0.984411 0.0709565
189 3 I 3.53759 1.8308 11.6426 1.26999 0.505536 1.35883
190 3 I 7.78459 7.10378 13.4683 0.582497 -0.767104 0.155834
191 3 I 2.72023 3.72503 18.7319 1.53813 -3.18191 -0.191625
192 3 I 9.50913 2.83938 15.9989 1.52712 0.0704676 1.06744
193 4 N 9.50887 2.13602 7.51679 0.723122 -0.891042 0.145831
194 4 N 3.77439 2.00033 7.77227 1.19514 0.928622 -0.600194
195 4 N 6.59775 3.6608 2.95976 0 0 0
196 4 N 0.771166 3.6608 2.95976 0 0 0
197 4 N 0.871565 0.326994 5.13265 -1.26851 1.37358 -0.570537
198 4 N 0.771166 0.296822 0.342545 0 0 0
199 4 N 3.68446 8.70677 2.95976 0 0 0
200 4 N 9.51104 5.34279 0.342545 0 0 0
201 4 N 6.53428 6.97463 7.58411 1.21942 -0.322498 0.283393
202 4 N 6.59775 0.296822 0.342545 0 0 0
203 4 N 9.51104 8.70677 2.95976 0 0 0
204 4 N 9.57013 5.28045 5.09792 -0.7008 1.76166 0.0468408
205 4 N 3.71841 5.3756 5.15298 0.49363 0.0694392 0.188333
206 4 N 6.56163 0.283244 5.11897 2.3898 -0.443088 -0.2389
207 4 N 0.654282 7.04512 7.69806 -1.51452 -2.23483 -0.39541
208 4 N 3.68446 5.34279 0.342545 0 0 0
209 5 Si 9.58351 8.81245 6.45759 -0.0993319 -0.0269382 0.129789
210 5 Si 3.68446 1.97881 1.80169 0 0 0
211 5 Si 9.51104 1.97881 1.80169 0 0 0
212 5 Si 0.771166 7.02478 1.80169 0 0 0
213 5 Si 6.59775 7.02478 1.80169 0 0 0
214 5 Si 3.62567 8.6838 6.42857 0.31769 0.00103924 0.205239
215 5 Si 0.839064 3.67974 6.36178 -0.166682 0.0357104 0.666542
216 5 Si 6.56651 3.68682 6.28504 0.172983 0.173134 0.333019
ITEM: TIMESTEP
200
ITEM: NUMBER OF ATOMS
216
ITEM: BOX BOUNDS pp pp ff
0.0000000000000000e+00 1.1653169955468799e+01
0.0000000000000000e+00 1.0091941216053600e+01
0.0000000000000000e+00 3.8509432000000004e+01
ITEM: ATOMS id type element xu yu zu fx fy fz
1 1 F 2.46469 2.68305 0.816065 0 0 0
2 1 F 8.3435 9.53944 7.44868 -0.137684 -0.0250378 -0.126089
3 1 F 5.41991 4.5951 7.19608 0.10476 0.0680057 0.310601
4 1 F 11.1979 4.63299 7.20566 0.126418 -0.0921701 -0.00384352
5 1 F 2.46381 1.27407 2.80035 0 0 0
6 1 F 8.2904 1.27407 2.80035 0 0 0
7 1 F 5.37711 6.32004 2.80035 0 0 0
8 1 F 11.2037 6.32004 2.80035 0 0 0
9 1 F 3.68446 0.570344 0.816065 0 0 0
10 1 F 2.54016 9.65347 7.42636 -0.391569 -0.167376 0.146967
11 1 F 9.51104 0.570344 0.816065 0 0 0
12 1 F 6.59775 5.61631 0.816065 0 0 0
13 1 F 9.20945 6.11358 13.4542 -0.209232 -0.162153 0.217912
14 1 F 8.89976 8.48973 12.4896 0.606318 0.747295 -0.311593
15 1 F 6.53654 8.82616 13.84 0.327659 -0.402638 -0.255981
16 1 F 6.70611 6.29821 14.6227 -0.0402159 -0.250607 0.676335
17 1 F 8.53748 7.9911 14.9164 0.886698 0.430179 1.60849
18 1 F 5.66104 7.40911 19.0561 -0.0936026 -0.120972 -0.374993
19 1 F 6.58882 8.62986 16.8571 1.75419 0.578931 -0.370544
20 1 F 0.771166 5.61631 0.816065 0 0 0
21 1 F 7.78255 2.79072 5.3996 -0.223867 0.142987 -0.00744362
22 1 F 2.01902 2.82666 5.59598 -0.0185581 0.0928484 -0.150769
23 1 F 10.7037 7.96597 5.46005 -0.120325 0.145082 -0.063999
24 1 F 0.771166 8.43426 2.80035 0 0 0
25 1 F 9.51104 3.38829 2.80035 0 0 0
26 1 F 3.68446 3.38829 2.80035 0 0 0
27 1 F 2.35525 8.0802 5.56028 -0.224983 -0.115959 -0.181687
28 1 F 8.27594 8.09337 5.43503 -0.0520196 0.102348 0.309447
29 1 F 5.37589 3.07508 5.36079 -0.0754938 -0.129896 -0.152972
30 1 F 11.2564 2.95982 5.44013 -0.104689 -0.0140535 -0.0501873
31 1 F 3.45056 7.38621 7.60437 0.0844054 -0.0377581 0.151525
32 1 F 9.52604 7.41423 7.46385 -0.498481 -0.243022 0.0242271
33 1 F 0.620661 2.46003 7.56738 -0.0203127 0.10128 -0.0431924
34 1 F 6.46938 2.39765 7.43002 0.00478597 -0.125866 -0.105771
35 1 F 11.2046 7.72902 0.816065 0 0 0
36 1 F 5.37798 7.72902 0.816065 0 0 0
37 1 F 8.29127 2.68305 0.816065 0 0 0
38 1 F 7.8184 6.32004 2.80035 0 0 0
39 1 F 1.99181 6.32004 2.80035 0 0 0
40 1 F 10.7317 1.27407 2.80035 0 0 0
41 1 F 4.9051 1.27407 2.80035 0 0 0
42 1 F 4.75708 7.78468 5.57275 -0.0580167 0.190324 -0.0279985
43 1 F 4.15818 9.18722 16.0688 0.116073 -0.187921 -0.48262
44 1 F 3.14005 8.00851 18.0061 -1.08796 -0.353592 0.606643
45 1 F 4.84633 9.62312 18.3458 0.506377 -0.423109 -0.167782
46 1 F 3.6943 8.65294 11.6959 0.0796201 0.187136 0.331299
47 1 F 3.06342 3.11908 17.2944 -0.312258 0.455829 0.495087
48 1 F 1.03362 5.56692 15.096 -0.558802 -0.436204 0.176732
49 1 F 5.25557 1.57129 16.3169 0.557078 0.187038 0.223936
50 1 F 11.8189 6.72429 17.4882 -0.300669 0.423896 0.382137
51 1 F 7.83168 0.598065 17.6565 -0.926207 -1.59674 -0.358127
52 1 F 9.61775 0.214589 14.7148 0.0927106 -0.0554641 -0.00231526
53 1 F -0.49451 1.38655 19.5002 0.487585 -0.408061 0.229787
54 1 F 5.59437 4.9152 16.8348 0.240174 0.518979 -0.557976
55 1 F 6.80861 11.6943 13.1873 -0.0405834 -0.399743 -0.491791
56 1 F 8.79895 6.84171 18.5632 0.385342 0.0391394 -0.103286
57 1 F 1.02258 9.66863 16.1573 0.95155 -0.286673 -0.856418
58 1 F 11.7768 1.63653 13.4006 -0.0297313 -0.205027 -0.228068
59 1 F 7.49072 3.6925 20.2574 -0.317643 -0.244583 -0.353468
60 1 F 10.6287 9.7574 17.3934 -0.0563218 -0.839233 1.3187
61 1 F 11.3126 7.56005 14.6152 0.148416 0.972448 -0.135281
62 1 F 3.38264 6.09404 15.2602 0.00182205 0.217681 0.327647
63 1 F 0.0446912 8.51439 19.8501 -0.296353 -0.0499086 -1.1463
64 1 F 4.696 3.62917 14.3881 -0.274239 -0.975342 -1.11068
65 1 F 2.91705 0.988826 14.7449 -5.26962e-05 -0.11934 0.414555
66 1 F 2.74099 1.74273 19.3174 0.0606124 0.44209 0.015062
67 1 F 6.59775 8.43426 2.80035 0 0 0
68 1 F 4.63457 3.78333 19.0395 1.01425 0.115721 -0.138637
69 1 F 0.918962 3.65621 18.5094 -0.275976 -0.171463 -0.0721287
70 1 F 1.30054 8.22384 10.3949 0.321125 -0.311559 0.250766
71 1 F 1.77041 5.49857 10.7269 0.197315 0.489845 -0.0288054
72 1 F 4.19826 6.1439 12.0591 -0.578475 0.209287 -0.588132
73 1 F 1.89461 7.09204 12.6879 0.453589 0.251227 -0.975268
74 1 F 9.57221 2.42105 18.0912 -0.584391 0.425589 -1.07836
75 1 F 11.2775 2.099 16.2526 -0.521105 0.221487 -0.530814
76 1 F 9.74867 3.09249 14.2805 0.0443459 0.310293 -0.554839
77 1 F 7.78489 3.59543 15.8832 -0.195079 -0.203755 -0.0364944
78 1 F 10.0327 4.25219 16.5195 0.0465699 -0.0614502 -0.351182
79 1 F 10.4735 5.62373 10.8926 -0.193474 0.0751233 -0.158996
80 1 F 9.84755 3.03249 11.0223 0.217682 -0.294731 0.053048
81 1 F 7.47981 3.46444 10.0186 -0.140862 -0.180593 -0.261788
82 1 F 7.82648 6.16947 10.055 -0.0920791 0.370621 -0.318263
83 1 F 9.47032 4.42653 9.01253 0.342675 0.366368 -0.161894
84 1 F 4.67196 3.36604 10.711 -0.27743 -0.088756 0.648403
85 1 F 4.46258 0.762229 10.4367 -0.0245231 0.0149848 -0.0621549
86 1 F 2.15513 0.731009 11.8967 -0.289058 -0.398209 0.0108702
87 1 F 2.37612 3.30641 12.296 0.0174277 0.0844575 0.0638394
88 1 F 2.54033 2.24683 10.0602 -0.00837677 0.117374 0.18618
89 1 F 2.6834 5.45651 18.3859 0.256547 -0.19555 -0.0309008
90 1 F 4.90423 2.68305 0.816065 0 0 0
91 1 F 6.65416 4.59084 12.1211 -0.821969 0.240779 0.582634
92 1 F 1.99093 7.72902 0.816065 0 0 0
93 1 F 6.78014 5.08411 5.25878 0.0189515 -0.145444 0.0521198
94 1 F 0.933572 4.9832 5.28131 -0.128336 0.156658 0.0289694
95 1 F 9.59554 10.1325 5.38265 -0.241953 -0.159306 0.496276
96 1 F 3.79541 10.0545 5.45202 -0.0739426 -0.255761 -0.166582
97 1 F 10.7308 2.68305 0.816065 0 0 0
98 1 F 2.0399 4.45844 7.37567 -0.232755 0.0736313 0.0198131
99 1 F 10.8272 9.42185 7.39784 -0.478332 0.149541 -0.321241
100 1 F 4.95231 9.33202 7.43048 -0.0616785 -0.306512 -0.109701
101 1 F 7.81752 7.72902 0.816065 0 0 0
102 1 F 7.91018 4.32947 7.21803 -0.296765 0.195234 -0.0934629
103 2 H 8.84814 1.25598 8.06219 -0.370805 -0.0403447 0.114883
104 2 H 7.31862 -0.233771 17.4471 0.850918 1.70111 0.195289
105 2 H 3.4581 2.80993 8.17992 -0.353165 0.161915 -0.0597521
106 2 H 10.8884 6.58154 17.5878 -0.176672 -0.274994 -0.0483922
107 2 H 7.20015 1.06971 5.17981 0.000550257 0.339882 0.103068
108 2 H 4.40962 1.40097 15.9514 -0.395836 0.0110015 -0.389221
109 2 H 4.37245 5.99876 4.84467 0.284253 0.0765998 -0.20979
110 2 H 0.358098 6.25652 15.1366 0.45433 0.0818471 -0.208313
111 2 H 10.0196 6.3191 4.79336 0.007851 -0.208304 0.0330421
112 2 H 3.30177 1.14748 7.98301 -0.178715 -0.334465 0.0132814