ITEM: TIMESTEP
0
ITEM: NUMBER OF ATOMS
178
ITEM: BOX BOUNDS pp pp ff
0.0000000000000000e+00 1.1653169955468799e+01
0.0000000000000000e+00 1.0091941216053600e+01
0.0000000000000000e+00 3.7082167999999996e+01
ITEM: ATOMS id type element xu yu zu fx fy fz
1 1 F 7.81752 7.72902 0.816065 0 0 0
2 1 F 6.59678 2.25267 7.40122 -0.0446106 0.0675545 -0.156889
3 1 F 11.2046 7.72902 0.816065 0 0 0
4 1 F 5.37798 7.72902 0.816065 0 0 0
5 1 F 8.29127 2.68305 0.816065 0 0 0
6 1 F 2.46469 2.68305 0.816065 0 0 0
7 1 F 7.8184 6.32004 2.80035 0 0 0
8 1 F 1.99181 6.32004 2.80035 0 0 0
9 1 F 10.7317 1.27407 2.80035 0 0 0
10 1 F 4.9051 1.27407 2.80035 0 0 0
11 1 F 4.90545 8.00072 5.41686 0.00550829 -0.0311031 -0.00223082
12 1 F 10.732 8.00072 5.41686 0.0269402 -0.0307516 -0.0905727
13 1 F 1.99216 2.95475 5.41686 0.0360842 -0.0124074 -0.0616943
14 1 F 7.81875 2.95475 5.41686 0.00386698 -0.00520366 -0.0680969
15 1 F 2.46547 9.41168 7.40123 0.0694571 -0.0289859 -0.0515937
16 1 F 8.29205 9.41168 7.40123 -0.00708661 -0.0374058 -0.208081
17 1 F 5.37876 4.36571 7.40122 -0.00348672 0.159287 -0.0903722
18 1 F 11.2053 4.36571 7.40122 0.0557602 -0.0555731 -0.0747587
19 1 F 0.770192 2.25267 7.40122 0.019961 0.00930462 -0.0186248
20 1 F 2.46381 1.27407 2.80035 0 0 0
21 1 F 9.51007 7.29864 7.40122 -0.0508992 0.21133 -0.636712
22 1 F 11.2024 2.95642 5.41686 -0.00900095 -0.0158112 -0.0716509
23 1 F 6.59871 5.07124 5.41686 -0.0444799 0.0319286 -0.00417186
24 1 F 3.68542 10.1172 5.41686 0.0135406 0.000608247 -0.0463109
25 1 F 7.81771 4.36402 7.40122 -0.127678 -0.00648919 -0.154711
26 1 F 1.99113 4.36402 7.40122 -0.209742 -0.300595 -0.407756
27 1 F 10.731 9.41 7.40122 -0.0729395 0.0303782 -0.292465
28 1 F 4.90442 9.41 7.40122 -0.037533 -0.0414411 -0.035585
29 1 F 1.9561 2.80287 15.2043 0.629455 -0.00672894 -0.380079
30 1 F 1.99093 7.72902 0.816065 0 0 0
31 1 F 10.7308 2.68305 0.816065 0 0 0
32 1 F 4.90423 2.68305 0.816065 0 0 0
33 1 F 6.59775 8.43426 2.80035 0 0 0
34 1 F 0.771166 8.43426 2.80035 0 0 0
35 1 F 9.51104 3.38829 2.80035 0 0 0
36 1 F 3.68446 3.38829 2.80035 0 0 0
37 1 F 2.4625 8.00239 5.41686 0.0509146 -0.0193038 -0.00171446
38 1 F 8.28909 8.00239 5.41686 -0.0811514 -0.0412509 -0.0701873
39 1 F 5.37579 2.95642 5.41686 -0.0346917 0.0321374 -0.0147022
40 1 F 3.68348 7.29864 7.40122 0.268406 0.293297 -0.355463
41 1 F 0.772129 5.07124 5.41686 0.0193275 0.00613541 -0.0569891
42 1 F 8.2904 1.27407 2.80035 0 0 0
43 1 F 11.2037 6.32004 2.80035 0 0 0
44 1 F 10.4311 9.37699 12.255 -4.37921 -4.13323 -0.0922569
45 1 F 11.2799 6.88974 11.7032 -0.263387 -0.0979439 -0.667184
46 1 F 11.0374 8.64485 9.95345 0.136369 -0.00577063 -0.0536027
47 1 F 11.2441 2.78323 14.8974 -0.668235 -0.42341 -0.621558
48 1 F 11.619 3.07504 12.2544 0.0813514 -0.132641 0.140134
49 1 F 11.7509 0.407091 11.9785 4.61488 4.08891 -0.634258
50 1 F 11.376 0.115282 14.6216 0.087891 0.122622 0.27896
51 1 F 9.90437 1.54039 13.206 0.426945 -0.0155702 0.489121
52 1 F 4.89112 6.01808 16.6282 0.320019 0.209289 -0.0685138
53 1 F 4.42908 4.11534 14.7904 0.438223 -0.035721 -0.363353
54 1 F 6.867 3.08485 15.2444 0.137213 -0.0750999 -0.0242152
55 1 F 7.32904 4.98759 17.0822 -0.00130088 -0.0271536 -0.0572905
56 1 F 5.26306 3.59749 17.0788 0.69216 0.00631068 0.289286
57 1 F 3.67395 1.85022 16.7347 -0.663022 -0.294158 -0.101241
58 1 F 1.0676 1.22996 16.9182 -0.107281 -0.220846 -0.0449812
59 1 F 0.443916 3.84178 16.888 0.387302 0.00552134 0.369156
60 1 F 3.05027 4.46204 16.7045 -1.23544 -0.146795 0.385348
61 1 F 8.63141 9.20331 10.2694 -0.0470046 -0.0626273 -0.141908
62 1 F 5.37711 6.32004 2.80035 0 0 0
63 1 F 9.48026 6.71606 9.71758 0.00817352 -0.0576017 0.438243
64 1 F 2.81397 5.83722 9.13382 0.0111434 -0.149846 0.707492
65 1 F 3.68446 0.570344 0.816065 0 0 0
66 1 F 9.51104 0.570344 0.816065 0 0 0
67 1 F 0.771166 5.61631 0.816065 0 0 0
68 1 F 6.59775 5.61631 0.816065 0 0 0
69 1 F 5.57424 3.05173 12.4401 0.231077 -0.427001 0.027626
70 1 F 7.06342 3.72798 10.3102 0.256949 0.00473755 -0.295846
71 1 F 8.91891 1.92741 11.0358 -0.119799 0.133858 -0.539048
72 1 F 7.42973 1.25116 13.1657 -0.280842 0.0470014 -0.271096
73 1 F 6.49952 1.36539 10.8587 -0.0534527 -0.0521713 -0.080277
74 1 F 9.0307 7.98985 16.6254 -0.272173 -0.0829695 0.180955
75 1 F 9.07088 8.34013 13.9633 -0.847408 -0.236285 -0.124271
76 1 F 11.6779 7.69761 13.9181 0.124489 -0.0805573 0.475958
77 1 F 11.6377 7.34733 16.5802 0.0909688 -0.0357639 0.0703583
78 1 F 9.96867 6.29381 15.062 -0.141179 -0.220617 -0.0695988
79 1 F 4.39716 3.83305 9.96344 -0.340468 -0.145553 -0.00284483
80 1 F 5.59269 5.49631 11.7 0.122759 0.499053 0.1808
81 1 F 4.0095 7.50048 10.8704 0.0635881 0.0227324 -0.0481438
82 1 F 3.11765 5.27418 11.5404 -0.110764 -0.043028 0.0895857
83 1 F 9.51201 10.1172 5.41686 -0.0236465 0.0601836 -0.110643
84 2 H 1.61272 0.782748 4.7083 -0.00860555 -0.000191532 0.0335054
85 2 H 0.771166 0.296822 6.07566 -0.0113747 -0.0036241 0.027384
86 2 H 6.59775 0.296822 6.07566 0.0175118 -0.00207882 0.0453525
87 2 H 3.68381 0.993427 7.92167 0.0098265 0.0303978 -0.00527678
88 2 H 9.51104 5.34279 1.36921 0 0 0
89 2 H 3.68446 5.34279 1.36921 0 0 0
90 2 H 6.59775 0.296822 1.36921 0 0 0
91 2 H 0.771166 0.296822 1.36921 0 0 0
92 2 H 8.67011 4.85728 0 0 0 0
93 2 H 2.84352 4.85728 0 0 0 0
94 2 H 11.5834 9.90325 0 0 0 0
95 2 H 5.75681 9.90325 0 0 0 0
96 2 H 6.59775 4.62811 3.30385 0 0 0
97 2 H 9.51104 1.97881 6.59028 0.000157209 -0.00520964 0.0543815
98 2 H 0.771166 7.02478 6.59028 -0.0355658 0.0234061 0.050559
99 2 H 3.68446 5.34279 6.07566 -0.0315969 -0.00171635 0.00081671
100 2 H 6.5971 6.0394 7.92167 0.18365 -0.00640353 -0.0539648
101 2 H 2.83141 2.47207 7.92167 0.04897 0.0435434 0.0504773
102 2 H 7.4393 0.782748 4.7083 0.00622948 -0.00560017 0.0365332
103 2 H 4.52601 5.82872 4.7083 -0.0062621 -0.00416052 0.0262347
104 2 H 10.3526 5.82872 4.7083 -0.00451969 0.00411406 0.0382211
105 2 H 0.771166 4.62811 3.30385 0 0 0
106 2 H 9.51104 9.67408 3.30385 0 0 0
107 2 H 8.66944 5.82864 4.7083 0.0144314 0.00200955 0.0346437
108 2 H 6.59775 3.6608 1.93343 0 0 0
109 2 H 0.771166 3.6608 1.93343 0 0 0
110 2 H 1.6121 9.90325 0 0 0 0
111 2 H 9.51104 8.70677 1.93343 0 0 0
112 2 H 3.68446 8.70677 1.93343 0 0 0
113 2 H 10.352 4.85728 0 0 0 0
114 2 H 6.59775 7.02478 6.59028 -0.000744513 -0.00312593 0.00328462
115 2 H 4.52539 4.85728 0 0 0 0
116 2 H 9.51104 5.34279 6.07566 0.00678376 0.00547056 0.0390526
117 2 H 2.84674 8.22312 3.30385 0 0 0
118 2 H 8.67333 8.22312 3.30385 0 0 0
119 2 H 5.76004 3.17715 3.30385 0 0 0
120 2 H 11.5866 3.17715 3.30385 0 0 0
121 2 H 4.53815 2.47094 7.92167 -0.0300495 -0.00630531 0.142352
122 2 H 9.51039 0.993428 7.92167 -0.024432 -0.0191275 0.1145
123 2 H 10.3647 2.47094 7.92167 -0.0334171 -0.00720635 0.0411732
124 2 H 1.62486 7.51691 7.92167 -0.0833496 -0.0775018 0.113191
125 2 H 7.45144 7.51691 7.92167 0.0878574 0.0172122 0.0645136
126 2 H 3.68446 9.67408 3.30385 0 0 0
127 2 H 8.658 2.47207 7.92167 -0.00554487 -0.0100952 0.12566
128 2 H 0.770517 6.0394 7.92167 0.0305998 0.0673869 0.106729
129 2 H 5.74471 7.51804 7.92167 0.0816577 0.126304 -0.0764159
130 2 H 11.5713 7.51804 7.92167 0.0757643 -0.025928 0.0642131
131 2 H 9.51109 4.37102 4.7083 0.00447138 0.00361829 0.038618
132 2 H 3.68446 1.97881 6.59028 -0.0179443 -0.0178856 0.0391906
133 2 H 1.60888 3.17715 3.30385 0 0 0
134 2 H 10.3488 8.22312 3.30385 0 0 0
135 2 H 4.52217 8.22312 3.30385 0 0 0
136 2 H 6.5978 9.41699 4.7083 0.0116902 0.00822166 0.0337699
137 2 H 0.771214 9.41699 4.7083 -0.0107402 0.00138073 0.0362883
138 2 H 3.68451 4.37102 4.7083 -0.00563112 0.00132352 0.0270939
139 2 H 3.68446 6.31382 0 0 0 0
140 2 H 9.51104 6.31382 0 0 0 0
141 2 H 0.771166 1.26785 0 0 0 0
142 2 H 6.59775 1.26785 0 0 0 0
143 2 H 5.75615 0.782665 4.7083 0.00436619 -0.00193871 0.0291345
144 2 H 11.5827 0.782665 4.7083 -0.000370306 -0.00603793 0.0388811
145 2 H 2.84286 5.82864 4.7083 -0.00748794 -0.00350286 0.0238204
146 2 H 7.43546 3.17715 3.30385 0 0 0
147 2 H 7.43869 9.90325 0 0 0 0
148 3 I 2.07402 2.85233 17.0471 0.266611 0.476615 0.732583
149 3 I 7.35617 2.6545 11.867 -0.0686435 -0.235397 0.579153
150 3 I 9.79696 7.95875 11.1378 -0.203385 -0.462314 0.560627
151 3 I 11.7312 1.6032 13.472 0.37846 2.05927 -0.641937
152 3 I 5.96943 4.69142 15.7687 0.01162 0.504329 -0.11394
153 3 I 10.4109 8.07112 15.3025 0.29585 -0.708668 0.872452
154 3 I 4.36261 5.72436 10.2521 -0.132244 -0.0124328 -0.220894
155 4 N 6.59775 3.6608 2.95976 0 0 0
156 4 N 6.59775 0.296822 0.342545 0 0 0
157 4 N 3.68446 1.97881 7.62088 0.00898363 -0.0354121 -0.116911
158 4 N 9.51104 1.97881 7.62088 0.00869947 0.0128146 -0.0897249
159 4 N 0.771166 7.02478 7.62088 -0.101666 0.0182907 -0.245528
160 4 N 0.771166 3.6608 2.95976 0 0 0
161 4 N 6.59775 7.02478 7.62088 -0.0651643 -0.0518506 0.0213991
162 4 N 0.771167 0.296821 5.04741 0.00302749 -0.00782142 0.00154458
163 4 N 0.771166 0.296822 0.342545 0 0 0
164 4 N 3.68446 8.70677 2.95976 0 0 0
165 4 N 9.51104 5.34279 0.342545 0 0 0
166 4 N 3.68446 5.34279 0.342545 0 0 0
167 4 N 6.59775 0.296822 5.04741 -0.00360414 0.00415123 0.00565945
168 4 N 9.51104 8.70677 2.95976 0 0 0
169 4 N 9.51104 5.34279 5.04741 -0.00882334 0.00707027 0.017483
170 4 N 3.68446 5.34279 5.04741 0.00926528 0.00755324 0.0254954
171 5 Si 9.51104 1.97881 1.80169 0 0 0
172 5 Si 6.59775 3.6608 6.42034 0.215321 -0.10107 0.256813
173 5 Si 0.771166 3.6608 6.42034 -0.0454932 0.0709993 0.24294
174 5 Si 3.68446 8.70677 6.42034 -0.0591126 0.0903338 0.115144
175 5 Si 6.59775 7.02478 1.80169 0 0 0
176 5 Si 0.771166 7.02478 1.80169 0 0 0
177 5 Si 3.68446 1.97881 1.80169 0 0 0
178 5 Si 9.51104 8.70677 6.42034 0.0674449 0.0306309 0.3214
ITEM: TIMESTEP
100
ITEM: NUMBER OF ATOMS
178
ITEM: BOX BOUNDS pp pp ff
0.0000000000000000e+00 1.1653169955468799e+01
0.0000000000000000e+00 1.0091941216053600e+01
0.0000000000000000e+00 3.7082167999999996e+01
ITEM: ATOMS id type element xu yu zu fx fy fz
1 1 F 7.81752 7.72902 0.816065 0 0 0
2 1 F 6.51001 2.12577 7.28108 0.00455696 0.51276 -0.196609
3 1 F 11.2046 7.72902 0.816065 0 0 0
4 1 F 5.37798 7.72902 0.816065 0 0 0
5 1 F 8.29127 2.68305 0.816065 0 0 0
6 1 F 2.46469 2.68305 0.816065 0 0 0
7 1 F 7.8184 6.32004 2.80035 0 0 0
8 1 F 1.99181 6.32004 2.80035 0 0 0
9 1 F 10.7317 1.27407 2.80035 0 0 0
10 1 F 4.9051 1.27407 2.80035 0 0 0
11 1 F 5.00538 8.21014 5.40882 -0.108036 -0.132135 0.0671363
12 1 F 10.8266 8.03378 5.34872 -0.422944 0.0891348 0.132695
13 1 F 2.14117 3.22798 5.35717 -0.402026 -0.225123 -0.00209112
14 1 F 7.82784 2.93704 5.43905 -0.359654 0.332599 0.23577
15 1 F 2.39706 9.35267 7.42463 0.269303 -0.318696 -0.11045
16 1 F 8.2529 9.29747 7.29724 0.104194 -0.0639661 -0.300856
17 1 F 5.28412 4.34915 7.28342 -0.127657 0.103531 0.140564
18 1 F 11.0929 3.99828 7.46035 0.519205 -0.23583 -0.498292
19 1 F 1.01072 2.12741 7.22481 0.101333 0.100193 0.080211
20 1 F 2.46381 1.27407 2.80035 0 0 0
21 1 F 9.51424 7.11711 7.13776 -0.0630866 0.643613 -0.249089
22 1 F 11.3538 2.81883 5.32226 -0.146794 -0.302059 -0.0259939
23 1 F 6.68405 5.10621 5.40581 -0.183103 -0.532662 0.298802
24 1 F 3.71796 10.2074 5.55055 -0.222488 0.266493 -0.121344
25 1 F 7.64694 4.30771 7.52696 0.132893 -0.205607 -0.472854
26 1 F 1.83161 4.50596 7.3087 -0.0350512 -0.0871301 0.213152
27 1 F 10.6133 9.33718 7.36345 0.22605 0.202982 -0.0496349
28 1 F 4.84875 9.41444 7.54878 0.189776 0.26374 0.1316
29 1 F 2.09631 3.09648 15.2254 -0.030005 -0.243281 -0.0703693
30 1 F 1.99093 7.72902 0.816065 0 0 0
31 1 F 10.7308 2.68305 0.816065 0 0 0
32 1 F 4.90423 2.68305 0.816065 0 0 0
33 1 F 6.59775 8.43426 2.80035 0 0 0
34 1 F 0.771166 8.43426 2.80035 0 0 0
35 1 F 9.51104 3.38829 2.80035 0 0 0
36 1 F 3.68446 3.38829 2.80035 0 0 0
37 1 F 2.54583 8.06338 5.39848 -0.152286 0.0392926 -0.0987669
38 1 F 8.31813 8.01926 5.25577 -0.189346 -0.266141 -0.00502706
39 1 F 5.30323 3.00883 5.32015 0.666591 0.112229 0.300347
40 1 F 3.83486 7.25417 7.24306 -0.0208814 0.0582838 0.365913
41 1 F 0.430228 5.04127 5.44402 0.422136 0.076175 0.0734473
42 1 F 8.2904 1.27407 2.80035 0 0 0
43 1 F 11.2037 6.32004 2.80035 0 0 0
44 1 F 10.3848 9.31272 12.0987 -0.681588 -2.57881 -1.10063
45 1 F 11.1883 6.51604 11.4696 0.310765 -0.062174 0.289093
46 1 F 10.8668 8.34666 9.87213 -0.068887 -0.0269444 0.0997469
47 1 F 10.8323 2.83645 14.79 -0.290114 -0.213727 0.107717
48 1 F 11.4322 3.47151 12.5472 0.487054 -0.797614 0.205672
49 1 F 12.8195 1.39883 11.8875 -0.319331 -0.275151 0.0609981
50 1 F 11.4919 0.408989 14.8411 -0.0126938 -0.176928 -0.522749
51 1 F 10.2863 1.23683 12.7654 0.843985 1.18555 0.779578
52 1 F 5.10797 6.22853 16.4432 0.289835 0.0729807 -0.151136
53 1 F 4.52514 4.18655 14.7656 0.757025 0.141998 0.00537651
54 1 F 7.14057 3.21334 15.2732 -0.202461 -0.252123 0.025983
55 1 F 7.46957 5.11169 16.9851 0.0229929 -0.022651 0.273551
56 1 F 5.27196 3.86296 17.0338 0.829175 -0.265453 -0.0298234
57 1 F 3.44231 1.54227 16.6521 0.418343 -0.135197 -0.321868
58 1 F 0.945316 1.51372 16.9795 0.441787 -0.586149 0.0238039
59 1 F 0.487231 3.77898 17.092 0.603536 0.57422 0.155427
60 1 F 2.84857 4.72923 16.8329 -0.196401 -0.0334178 0.121241
61 1 F 8.42769 8.69677 10.1557 -0.164334 0.188409 0.142359
62 1 F 5.37711 6.32004 2.80035 0 0 0
63 1 F 9.35609 6.35093 9.76868 -0.217198 -0.0705798 0.224219
64 1 F 2.53883 6.01453 9.41168 0.497311 -0.502207 0.393925
65 1 F 3.68446 0.570344 0.816065 0 0 0
66 1 F 9.51104 0.570344 0.816065 0 0 0
67 1 F 0.771166 5.61631 0.816065 0 0 0
68 1 F 6.59775 5.61631 0.816065 0 0 0
69 1 F 5.53133 3.11487 12.2826 0.978313 -0.422354 -0.134565
70 1 F 7.10591 3.96157 10.2618 -0.137568 -0.32198 0.44611
71 1 F 9.0002 2.30085 10.7104 -0.244646 -0.174422 0.427884
72 1 F 7.453 1.24032 12.9803 -0.100392 0.025478 -0.201618
73 1 F 6.58917 1.46276 10.6611 -0.0283372 -0.0472221 -0.211677
74 1 F 9.03191 7.59128 16.9095 -0.906797 0.120803 0.0103511
75 1 F 8.67703 7.71813 14.2204 0.357861 -0.0997882 0.087888
76 1 F 11.7045 7.55949 14.1666 -0.798484 0.118482 0.57479
77 1 F 11.414 7.35304 16.8476 0.866738 0.208056 0.0117806
78 1 F 10.1466 5.97408 15.2883 -0.308704 -0.178249 -0.17801
79 1 F 3.97521 3.76149 9.92627 -0.0836679 0.495674 0.248736
80 1 F 5.49863 5.96187 11.802 0.090114 -0.164349 -0.325809
81 1 F 3.93942 7.58153 10.6558 0.170819 -0.0373538 0.120995
82 1 F 3.13612 5.31249 11.7656 -0.259519 0.0232954 0.0721395
83 1 F 9.49651 10.1028 5.32881 0.0386691 -0.0180858 0.167008
84 2 H 1.44989 0.683634 4.49436 -0.12671 -0.0690447 0.180215
85 2 H 0.838995 0.73064 6.05239 0.217098 0.375039 0.671109
86 2 H 6.22653 0.610466 5.93642 -0.318406 0.100889 0.347351
87 2 H 4.52924 1.27985 7.89139 -0.51301 0.370096 0.227864
88 2 H 9.51104 5.34279 1.36921 0 0 0
89 2 H 3.68446 5.34279 1.36921 0 0 0
90 2 H 6.59775 0.296822 1.36921 0 0 0
91 2 H 0.771166 0.296822 1.36921 0 0 0
92 2 H 8.67011 4.85728 0 0 0 0
93 2 H 2.84352 4.85728 0 0 0 0
94 2 H 11.5834 9.90325 0 0 0 0
95 2 H 5.75681 9.90325 0 0 0 0
96 2 H 6.59775 4.62811 3.30385 0 0 0
97 2 H 8.45481 2.08333 7.80348 0.473639 -0.215124 0.145973
98 2 H -0.138583 7.07911 7.0488 0.153337 -0.106306 0.145489
99 2 H 3.98575 5.66992 6.05533 0.25883 -0.0882834 0.353237
100 2 H 7.33656 6.23027 7.98824 0.397121 -0.736958 0.358088
101 2 H 2.84619 1.5455 7.59001 0.487218 0.0282375 0.472066
102 2 H 7.59386 0.573229 5.03478 -0.197688 0.251313 -0.205927
103 2 H 4.3617 5.54422 4.44334 0.0037653 -0.114408 -0.137086
104 2 H 10.5238 5.33438 5.1122 -0.182119 0.218455 0.0443321
105 2 H 0.771166 4.62811 3.30385 0 0 0
106 2 H 9.51104 9.67408 3.30385 0 0 0
107 2 H 9.07345 5.54696 4.21463 -0.0050586 0.288087 0.385575
108 2 H 6.59775 3.6608 1.93343 0 0 0
109 2 H 0.771166 3.6608 1.93343 0 0 0
110 2 H 1.6121 9.90325 0 0 0 0
111 2 H 9.51104 8.70677 1.93343 0 0 0
112 2 H 3.68446 8.70677 1.93343 0 0 0
113 2 H 10.352 4.85728 0 0 0 0
114 2 H 7.02991 7.08433 6.62087 -0.0845482 0.0767667 0.324186
115 2 H 4.52539 4.85728 0 0 0 0
116 2 H 9.11176 5.82483 5.91327 0.0212063 0.252806 0.0402968
117 2 H 2.84674 8.22312 3.30385 0 0 0
118 2 H 8.67333 8.22312 3.30385 0 0 0
119 2 H 5.76004 3.17715 3.30385 0 0 0
120 2 H 11.5866 3.17715 3.30385 0 0 0
121 2 H 3.67332 2.66389 8.57243 0.245881 0.118658 0.597934
122 2 H 9.65532 0.844586 7.76306 -0.263458 0.735567 0.453747
123 2 H 10.1115 2.49768 7.67276 -0.494708 -0.159954 0.464187
124 2 H 1.08803 7.8594 7.83202 0.314815 -0.0937493 0.233826
125 2 H 7.20654 7.92219 8.04789 0.264031 0.337024 0.112159
126 2 H 3.68446 9.67408 3.30385 0 0 0
127 2 H 9.46588 1.87687 9.13738 -0.0698524 0.0147852 -0.126985
128 2 H 1.20517 6.14156 7.5004 -0.394495 0.714296 0.488378
129 2 H 5.82745 6.97071 7.76774 0.29776 0.087233 -0.11399
130 2 H 11.7332 6.73835 8.63671 0.168836 0.0533182 0.276335
131 2 H 9.25521 4.2961 5.266 -0.254448 -0.210386 0.121714
132 2 H 3.9583 2.53806 6.96811 0.367315 0.171536 -0.197205
133 2 H 1.60888 3.17715 3.30385 0 0 0
134 2 H 10.3488 8.22312 3.30385 0 0 0
135 2 H 4.52217 8.22312 3.30385 0 0 0
136 2 H 6.59773 9.37253 4.96737 -0.482957 0.0729225 0.0358876
137 2 H 0.961263 9.37075 5.2574 -0.0225542 -0.456635 -0.0637984
138 2 H 3.12078 4.53902 5.14888 0.337793 0.245818 -0.163742
139 2 H 3.68446 6.31382 0 0 0 0
140 2 H 9.51104 6.31382 0 0 0 0
141 2 H 0.771166 1.26785 0 0 0 0
142 2 H 6.59775 1.26785 0 0 0 0
143 2 H 6.08058 0.736229 4.2632 -0.19504 0.087098 -0.135914
144 2 H 11.4807 0.440352 4.81572 -0.730092 -0.0424848 -0.342578
145 2 H 2.91058 6.23307 4.97287 0.34241 -0.382338 -0.11027
146 2 H 7.43546 3.17715 3.30385 0 0 0
147 2 H 7.43869 9.90325 0 0 0 0
148 3 I 2.20992 2.93754 17.0853 -1.40256 0.642691 0.614977
149 3 I 7.37868 2.71937 11.7603 -0.435105 0.856779 -0.229603
150 3 I 9.69279 7.64266 11.1523 0.608476 1.26233 0.320467
151 3 I 11.881 1.85462 13.5491 -1.09667 1.16223 -0.482947
152 3 I 6.143 4.80738 15.6681 -1.19523 0.428342 -0.232811
153 3 I 10.2255 7.81356 15.4579 0.879606 -0.0821122 -0.626279
154 3 I 4.22491 5.72228 10.3317 -0.459891 0.178285 -0.22065
155 4 N 6.59775 3.6608 2.95976 0 0 0
156 4 N 6.59775 0.296822 0.342545 0 0 0
157 4 N 3.76631 1.9899 7.81104 -0.607046 -0.75982 -1.13121
158 4 N 9.42461 1.81974 8.10413 0.224566 -0.318891 -1.05311
159 4 N 0.585325 6.96115 7.78075 0.0642098 -0.650944 -1.18919
160 4 N 0.771166 3.6608 2.95976 0 0 0
161 4 N 6.8563 7.05173 7.64484 -1.3517 0.0374609 -0.708338
162 4 N 0.76436 0.272113 5.15305 0.758471 0.104143 -0.657014
163 4 N 0.771166 0.296822 0.342545 0 0 0
164 4 N 3.68446 8.70677 2.95976 0 0 0
165 4 N 9.51104 5.34279 0.342545 0 0 0
166 4 N 3.68446 5.34279 0.342545 0 0 0
167 4 N 6.59267 0.30873 5.0376 1.28241 -0.346859 -0.0225391
168 4 N 9.51104 8.70677 2.95976 0 0 0
169 4 N 9.48011 5.28608 5.128 0.273594 -0.733161 -0.798133
170 4 N 3.60658 5.46974 5.13051 -0.746594 0.395016 -0.101844
171 5 Si 9.51104 1.97881 1.80169 0 0 0
172 5 Si 6.54612 3.64823 6.38712 0.013243 0.0212246 -0.0795598
173 5 Si 0.757376 3.59307 6.37114 -0.433156 0.480666 0.400583
174 5 Si 3.72389 8.78357 6.45665 0.0718905 -0.437768 0.0760318
175 5 Si 6.59775 7.02478 1.80169 0 0 0
176 5 Si 0.771166 7.02478 1.80169 0 0 0
177 5 Si 3.68446 1.97881 1.80169 0 0 0
178 5 Si 9.50223 8.66012 6.2914 0.203011 -0.0413448 0.311983
ITEM: TIMESTEP
200
ITEM: NUMBER OF ATOMS
178
ITEM: BOX BOUNDS pp pp ff
0.0000000000000000e+00 1.1653169955468799e+01
0.0000000000000000e+00 1.0091941216053600e+01
0.0000000000000000e+00 3.7082167999999996e+01
ITEM: ATOMS id type element xu yu zu fx fy fz
1 1 F 7.81752 7.72902 0.816065 0 0 0
2 1 F 6.62305 2.27701 7.40877 0.131105 0.40289 0.102564
3 1 F 11.2046 7.72902 0.816065 0 0 0
4 1 F 5.37798 7.72902 0.816065 0 0 0
5 1 F 8.29127 2.68305 0.816065 0 0 0
6 1 F 2.46469 2.68305 0.816065 0 0 0
7 1 F 7.8184 6.32004 2.80035 0 0 0
8 1 F 1.99181 6.32004 2.80035 0 0 0
9 1 F 10.7317 1.27407 2.80035 0 0 0
10 1 F 4.9051 1.27407 2.80035 0 0 0
11 1 F 5.07086 8.2751 5.54299 -0.171171 0.010665 -0.118528
12 1 F 10.6881 8.06305 5.23217 -0.00849954 0.278418 -0.0540295
13 1 F 2.03116 3.17228 5.31933 -0.0131507 -0.260387 0.0953832
14 1 F 7.76515 3.06344 5.43776 -0.0935331 0.178237 0.0985477
15 1 F 2.54773 9.1538 7.67576 -0.237747 -0.120197 0.0664608
16 1 F 8.25547 9.36976 7.23775 0.145108 0.144685 0.0739525
17 1 F 5.34435 4.42772 7.49899 0.0599714 -0.181574 -0.0228624
18 1 F 10.9855 3.8364 7.38289 0.550421 -0.00224111 -0.137307
19 1 F 1.05991 2.02119 7.22681 -0.246869 0.177249 -0.0638332
20 1 F 2.46381 1.27407 2.80035 0 0 0
21 1 F 9.64366 7.3389 7.17203 -0.244957 0.0110014 0.0229234
22 1 F 11.2968 2.61474 5.33531 0.145983 0.169926 0.0174115
23 1 F 6.39347 5.11327 5.42682 0.248271 -0.125218 0.107036
24 1 F 3.4185 10.078 5.62943 0.168546 0.239808 -0.292219
25 1 F 7.76965 4.53191 7.34964 0.0605272 -0.210282 0.171085
26 1 F 1.76884 4.3222 7.43107 -0.109233 0.0208942 0.020699
27 1 F 10.6891 9.5927 7.10533 -0.0638814 -0.0663791 0.072932
28 1 F 4.89268 9.64878 7.50312 0.175476 -0.0191793 0.215742
29 1 F 1.73897 3.3733 15.5573 0.265756 0.0830174 0.115888
30 1 F 1.99093 7.72902 0.816065 0 0 0
31 1 F 10.7308 2.68305 0.816065 0 0 0
32 1 F 4.90423 2.68305 0.816065 0 0 0
33 1 F 6.59775 8.43426 2.80035 0 0 0
34 1 F 0.771166 8.43426 2.80035 0 0 0
35 1 F 9.51104 3.38829 2.80035 0 0 0
36 1 F 3.68446 3.38829 2.80035 0 0 0
37 1 F 2.68692 7.7733 5.64209 -0.28924 0.129725 -0.173416
38 1 F 8.22172 7.96342 5.30259 0.0691763 0.0413584 0.102858
39 1 F 5.3238 2.94285 5.55096 -0.0853262 0.180997 0.0712576
40 1 F 4.09989 7.27147 7.48336 0.0898502 -0.0110617 0.352661
41 1 F 0.421974 4.94214 5.50375 0.0765805 -0.061698 0.0103414
42 1 F 8.2904 1.27407 2.80035 0 0 0
43 1 F 11.2037 6.32004 2.80035 0 0 0
44 1 F 10.4727 8.75768 11.7976 -0.179563 -0.481615 0.0179697
45 1 F 11.1605 6.2283 11.3922 0.196165 -0.0334213 0.0233551
46 1 F 10.4041 7.73317 9.54659 0.14311 -0.0968192 0.478597
47 1 F 10.2398 2.61095 14.6283 -0.282151 0.0427945 0.279385
48 1 F 11.7428 3.96537 12.7268 -0.141747 -0.262876 -0.157865
49 1 F 13.2376 1.62571 12.4334 -0.372774 0.495664 -0.581075
50 1 F 11.9596 0.364947 14.0995 -0.835426 0.113368 0.161578
51 1 F 10.4426 1.78206 12.3861 1.66083 -0.175417 0.63119
52 1 F 5.37695 6.40199 16.2965 0.0861416 0.102914 0.0482406
53 1 F 4.87154 4.40379 14.6311 0.285241 0.245116 0.125714
54 1 F 7.20359 3.3128 14.9213 0.0369747 0.155766 0.397292
55 1 F 7.6826 5.19949 16.9893 0.428269 -0.251443 0.437089
56 1 F 5.61357 4.01315 16.9575 0.363417 -0.220601 -0.2441
57 1 F 3.70959 2.25697 16.518 0.0717915 -0.671962 -0.177796
58 1 F 1.06728 1.50512 17.0297 0.228152 -0.271432 -0.0444116
59 1 F 0.522339 3.93759 17.5903 0.314327 0.125924 0.233229
60 1 F 3.10844 4.66006 17.089 -0.274918 0.453416 0.223497
61 1 F 8.28314 8.46716 10.4288 -0.372573 -0.330884 -0.0276138
62 1 F 5.37711 6.32004 2.80035 0 0 0
63 1 F 9.05552 5.80327 10.0194 -0.676022 -1.30466 -1.16488
64 1 F 2.15264 5.86104 10.0012 -0.221431 0.0025262 -0.25408
65 1 F 3.68446 0.570344 0.816065 0 0 0
66 1 F 9.51104 0.570344 0.816065 0 0 0
67 1 F 0.771166 5.61631 0.816065 0 0 0
68 1 F 6.59775 5.61631 0.816065 0 0 0
69 1 F 5.60923 2.64537 12.3286 0.249889 0.337074 -0.309289
70 1 F 7.02768 4.07126 10.2846 -0.134602 0.502561 -0.306253
71 1 F 8.98196 2.40679 10.6646 0.418451 0.159137 -0.42078
72 1 F 7.55931 1.07339 12.3864 0.362027 -0.39576 0.365674
73 1 F 6.69708 1.7609 10.2235 -0.298317 -0.234017 0.133441
74 1 F 8.75993 7.47802 17.0042 -0.308874 0.323811 0.558602
75 1 F 8.82065 7.02017 14.2367 -0.151562 -0.0971206 0.257098
76 1 F 11.4475 7.18858 14.3147 -0.724906 0.158861 0.486915
77 1 F 11.5549 7.55832 16.8197 0.215629 0.363547 0.729524
78 1 F 10.1923 5.76392 16.0062 -0.165784 -0.0678977 -0.370997
79 1 F 3.74419 3.83981 10.5632 0.0076302 0.0824386 -0.0211173
80 1 F 5.63917 5.81594 11.4771 0.152901 0.120306 0.0847623
81 1 F 3.90091 7.65318 10.683 0.193095 0.24531 -0.296641
82 1 F 3.32142 5.84677 12.1717 -0.147876 -0.516093 0.00301377
83 1 F 9.33041 10.1331 5.1935 -0.0081319 -0.0049767 0.102304
84 2 H 1.81584 0.344805 5.28383 -0.400503 -0.0303186 0.0837959
85 2 H 0.327472 -0.324461 5.78449 0.0517868 -0.118124 0.333895
86 2 H 6.39458 0.957539 6.01104 -0.187222 0.307626 0.59967
87 2 H 4.19917 1.16107 8.13038 0.160894 -0.273304 0.229415
88 2 H 9.51104 5.34279 1.36921 0 0 0
89 2 H 3.68446 5.34279 1.36921 0 0 0
90 2 H 6.59775 0.296822 1.36921 0 0 0
91 2 H 0.771166 0.296822 1.36921 0 0 0
92 2 H 8.67011 4.85728 0 0 0 0
93 2 H 2.84352 4.85728 0 0 0 0
94 2 H 11.5834 9.90325 0 0 0 0
95 2 H 5.75681 9.90325 0 0 0 0
96 2 H 6.59775 4.62811 3.30385 0 0 0
97 2 H 8.28633 1.89606 7.80706 -0.191696 -0.177451 -0.265317
98 2 H -0.236422 6.99045 7.74537 0.0546562 -0.141728 0.0633522
99 2 H 4.38187 5.31057 5.83109 0.0768683 -0.314638 0.324107
100 2 H 7.30219 6.21699 7.90611 0.0727486 -0.33344 0.11193
101 2 H 2.69044 1.80874 7.67186 -0.207549 -0.0880949 0.168544
102 2 H 7.55064 0.484843 4.912 -0.0875791 0.396125 -0.12892
103 2 H 4.28567 5.37832 4.21936 -0.0785361 -0.10025 -0.382311
104 2 H 10.4054 5.42198 4.8832 0.0273293 0.120849 0.164613
105 2 H 0.771166 4.62811 3.30385 0 0 0
106 2 H 9.51104 9.67408 3.30385 0 0 0
107 2 H 8.85441 5.70613 4.27491 0.0594063 0.082298 0.436832
108 2 H 6.59775 3.6608 1.93343 0 0 0
109 2 H 0.771166 3.6608 1.93343 0 0 0
110 2 H 1.6121 9.90325 0 0 0 0
111 2 H 9.51104 8.70677 1.93343 0 0 0
112 2 H 3.68446 8.70677 1.93343 0 0 0
113 2 H 10.352 4.85728 0 0 0 0
114 2 H 7.184 7.41028 6.76633 -0.0801205 0.0853794 0.101487
115 2 H 4.52539 4.85728 0 0 0 0
116 2 H 9.18498 5.82215 5.94456 -0.0958975 0.31207 0.390762
117 2 H 2.84674 8.22312 3.30385 0 0 0
118 2 H 8.67333 8.22312 3.30385 0 0 0
119 2 H 5.76004 3.17715 3.30385 0 0 0
120 2 H 11.5866 3.17715 3.30385 0 0 0
121 2 H 3.62844 2.67899 8.74406 0.119799 0.228624 0.868583
122 2 H 9.74574 0.987632 7.50727 -0.347059 -0.093687 0.186542
123 2 H 9.79358 2.61269 7.69306 0.494494 1.08318 -0.288371
124 2 H 1.0312 7.21397 6.70225 0.229571 0.0146941 -0.0782278
125 2 H 7.07174 7.83827 8.38991 -0.00579069 -0.312125 -0.430394
126 2 H 3.68446 9.67408 3.30385 0 0 0
127 2 H 9.41694 1.70863 9.00203 -0.00554963 -0.105587 0.301243
128 2 H 1.07 5.88823 7.70243 0.189651 -0.866179 0.0616324
129 2 H 5.80206 6.97838 7.63386 0.128177 0.0981047 0.00547284
130 2 H 12.9511 7.42675 8.33145 -0.13898 -0.0924462 -0.220162
131 2 H 9.18635 4.33442 5.16699 -0.214221 -0.137381 0.172225
132 2 H 4.09183 2.51268 7.19659 0.334659 0.139167 -0.302044
133 2 H 1.60888 3.17715 3.30385 0 0 0
134 2 H 10.3488 8.22312 3.30385 0 0 0
135 2 H 4.52217 8.22312 3.30385 0 0 0
136 2 H 6.31576 9.54202 5.23349 -0.237408 0.439434 0.235519
137 2 H 0.784064 9.71287 4.20237 -0.207371 -0.246825 -0.581262
138 2 H 3.16278 4.38206 5.08434 0.0670837 -0.215239 -0.0506365
139 2 H 3.68446 6.31382 0 0 0 0
140 2 H 9.51104 6.31382 0 0 0 0
141 2 H 0.771166 1.26785 0 0 0 0
142 2 H 6.59775 1.26785 0 0 0 0
143 2 H 5.94406 0.836253 4.39168 0.113011 0.233243 -0.0375662
144 2 H 11.9496 1.0632 4.94653 -0.20574 0.6014 -0.228331
145 2 H 3.10109 6.07404 5.17007 -0.0626631 0.0934253 -0.136517
146 2 H 7.43546 3.17715 3.30385 0 0 0
147 2 H 7.43869 9.90325 0 0 0 0
148 3 I 2.19897 3.02545 17.3485 -0.824752 0.360511 -0.0388081
149 3 I 7.3871 2.78412 11.6285 -0.81538 -0.699481 0.196942
150 3 I 9.55578 7.18549 11.1384 0.938533 2.49108 0.888322
151 3 I 11.8324 2.24953 13.6121 -0.00747767 -0.670573 -0.153146
152 3 I 6.43676 4.97489 15.5996 -0.974592 -0.169481 -0.863952
153 3 I 10.0805 7.57913 15.6566 1.46236 -0.320948 -1.82982
154 3 I 4.00886 5.76393 10.4468 -0.167139 0.360458 0.287053
155 4 N 6.59775 3.6608 2.95976 0 0 0
156 4 N 6.59775 0.296822 0.342545 0 0 0
157 4 N 3.65921 2.02025 7.98133 -0.263312 0.0248942 -0.888034
158 4 N 9.29655 1.78562 7.9916 0.0585906 -0.586414 0.127042
159 4 N 0.786184 6.86175 7.63346 -0.391184 1.17208 0.169144
160 4 N 0.771166 3.6608 2.95976 0 0 0
161 4 N 6.83675 7.10544 7.69302 -0.276057 0.41051 0.286271
162 4 N 0.808142 0.188124 5.04189 0.705372 -0.242746 0.295044
163 4 N 0.771166 0.296822 0.342545 0 0 0
164 4 N 3.68446 8.70677 2.95976 0 0 0
165 4 N 9.51104 5.34279 0.342545 0 0 0
166 4 N 3.68446 5.34279 0.342545 0 0 0
167 4 N 6.5414 0.466953 5.13986 0.421525 -1.43607 -0.744672
168 4 N 9.51104 8.70677 2.95976 0 0 0
169 4 N 9.39667 5.33657 5.08071 0.228855 -0.398875 -1.17429
170 4 N 3.71746 5.25347 5.0572 -0.0887946 0.828355 0.265196
171 5 Si 9.51104 1.97881 1.80169 0 0 0
172 5 Si 6.54864 3.74942 6.47891 -0.127382 -0.223036 -0.400608
173 5 Si 0.699681 3.47791 6.38401 -0.328565 0.0486216 0.308091
174 5 Si 3.78022 8.72802 6.61298 0.185466 -0.421733 0.0401039
175 5 Si 6.59775 7.02478 1.80169 0 0 0
176 5 Si 0.771166 7.02478 1.80169 0 0 0
177 5 Si 3.68446 1.97881 1.80169 0 0 0
178 5 Si 9.46133 8.77178 6.22044 0.177203 -0.607154 0.0453373
ITEM: TIMESTEP
300
ITEM: NUMBER OF ATOMS
178
ITEM: BOX BOUNDS pp pp ff
0.0000000000000000e+00 1.1653169955468799e+01
0.0000000000000000e+00 1.0091941216053600e+01
0.0000000000000000e+00 3.7082167999999996e+01
ITEM: ATOMS id type element xu yu zu fx fy fz
1 1 F 7.81752 7.72902 0.816065 0 0 0
2 1 F 6.69347 2.40412 7.44331 -0.0893509 -0.47635 0.648291
3 1 F 11.2046 7.72902 0.816065 0 0 0
4 1 F 5.37798 7.72902 0.816065 0 0 0
5 1 F 8.29127 2.68305 0.816065 0 0 0
6 1 F 2.46469 2.68305 0.816065 0 0 0
7 1 F 7.8184 6.32004 2.80035 0 0 0
8 1 F 1.99181 6.32004 2.80035 0 0 0
9 1 F 10.7317 1.27407 2.80035 0 0 0
10 1 F 4.9051 1.27407 2.80035 0 0 0
11 1 F 4.95056 8.02381 5.72797 0.102382 0.268323 -0.224982
12 1 F 10.6146 8.10561 5.24807 0.0761706 -0.00975229 -0.0229952
13 1 F 2.01604 2.87111 5.52357 0.146042 0.121724 -0.161497
14 1 F 7.77313 3.1107 5.44942 0.249995 -0.122608 -0.067527
15 1 F 2.48115 9.08464 7.74985 -0.386985 0.176575 0.435034
16 1 F 8.40651 9.39741 7.47372 -0.167629 0.0112507 0.391777
17 1 F 5.33186 4.51145 7.52773 -0.0898361 -0.444614 0.11203
18 1 F 11.0832 4.11638 7.35643 0.0580861 0.169007 0.37206
19 1 F 0.83416 2.06838 7.48697 0.0662503 0.180814 -0.0308949
20 1 F 2.46381 1.27407 2.80035 0 0 0
21 1 F 9.6739 7.30058 7.25421 -0.062176 -0.0486061 0.112467
22 1 F 11.2526 2.7122 5.46659 0.30367 0.253383 -0.0607306
23 1 F 6.43848 5.13991 5.51569 0.00601813 0.154392 -0.433999
24 1 F 3.45139 9.98713 5.71423 0.0596387 -0.100434 -0.327395
25 1 F 7.79012 4.56362 7.38668 0.174634 0.0119634 0.328621
26 1 F 1.90467 4.25243 7.52679 -0.155002 -0.0243176 -0.0229541
27 1 F 10.8186 9.51868 7.17514 -0.0305403 -0.0127937 0.0841691