LAMMPS data file via write_data, version 2 Aug 2023, timestep = 1000, units = metal

178 atoms
5 atom types

0 11.6531699554688 xlo xhi
0 10.0919412160536 ylo yhi
0 37.082167999999996 zlo zhi

Masses

1 18.998403163
2 1.008
3 126.90447
4 14.007
5 28.085

Atoms # atomic

6 1 2.464689 2.6830460000000005 0.8160649999999999 0 0 0
20 1 2.463813 1.274072 2.800346 0 0 0
36 1 3.6844579999999993 3.388292 2.800346 0 0 0
65 1 3.6844579999999993 0.570344 0.8160649999999999 0 0 0
91 2 0.771166 0.296822 1.3692119999999999 0 0 0
93 2 2.843523 4.857278 0 0 0 0
105 2 0.771166 4.628112 3.303851 0 0 0
109 2 0.771166 3.660802 1.93343 0 0 0
133 2 1.60888 3.177147 3.303851 0 0 0
141 2 0.771166 1.26785 0 0 0 0
160 4 0.771166 3.660802 2.9597559999999996 0 0 0
163 4 0.771166 0.296822 0.342545 0 0 0
177 5 3.6844579999999993 1.978812 1.801686 0 0 0
10 1 4.905104 1.274072 2.800346 0 0 0
32 1 4.904228 2.6830460000000005 0.8160649999999999 0 0 0
90 2 6.597750999999999 0.296822 1.3692119999999999 0 0 0
96 2 6.597750999999999 4.628112 3.303851 0 0 0
108 2 6.597750999999999 3.660802 1.93343 0 0 0
115 2 4.525393 4.857278 0 0 0 0
119 2 5.760036 3.177147 3.303851 0 0 0
142 2 6.597750999999999 1.26785 0 0 0 0
146 2 7.435464999999999 3.177147 3.303851 0 0 0
155 4 6.597750999999999 3.660802 2.9597559999999996 0 0 0
156 4 6.597750999999999 0.296822 0.342545 0 0 0
5 1 8.291273999999998 2.6830460000000005 0.8160649999999999 0 0 0
9 1 10.731689 1.274072 2.800346 0 0 0
31 1 10.730812999999998 2.6830460000000005 0.8160649999999999 0 0 0
35 1 9.511043 3.388292 2.800346 0 0 0
42 1 8.290398 1.274072 2.800346 0 0 0
66 1 9.511043 0.570344 0.8160649999999999 0 0 0
92 2 8.670108 4.857278 0 0 0 0
113 2 10.351978 4.857278 0 0 0 0
120 2 11.586621 3.177147 3.303851 0 0 0
171 5 9.511043 1.978812 1.801686 0 0 0
8 1 1.991811 6.320043 2.800346 0 0 0
30 1 1.990935 7.729017 0.8160649999999999 0 0 0
34 1 0.771166 8.434263 2.800346 0 0 0
67 1 0.771166 5.616314 0.8160649999999999 0 0 0
89 2 3.6844579999999993 5.342792000000001 1.3692119999999999 0 0 0
110 2 1.612101 9.903249 0 0 0 0
112 2 3.6844579999999993 8.706773 1.93343 0 0 0
117 2 2.846743 8.223118 3.303851 0 0 0
126 2 3.6844579999999993 9.674083 3.303851 0 0 0
139 2 3.6844579999999993 6.313821000000001 0 0 0 0
164 4 3.6844579999999993 8.706773 2.9597559999999996 0 0 0
166 4 3.6844579999999993 5.342792000000001 0.342545 0 0 0
176 5 0.771166 7.024783000000001 1.801686 0 0 0
4 1 5.377981 7.729017 0.8160649999999999 0 0 0
33 1 6.597750999999999 8.434263 2.800346 0 0 0
62 1 5.377105 6.320043 2.800346 0 0 0
68 1 6.597750999999999 5.616314 0.8160649999999999 0 0 0
95 2 5.756815 9.903249 0 0 0 0
135 2 4.522173 8.223118 3.303851 0 0 0
147 2 7.438686 9.903249 0 0 0 0
175 5 6.597750999999999 7.024783000000001 1.801686 0 0 0
1 1 7.81752 7.729017 0.8160649999999999 0 0 0
3 1 11.204566 7.729017 0.8160649999999999 0 0 0
7 1 7.818396 6.320043 2.800346 0 0 0
43 1 11.20369 6.320043 2.800346 0 0 0
88 2 9.511043 5.342792000000001 1.3692119999999999 0 0 0
94 2 11.5834 9.903249 0 0 0 0
106 2 9.511043 9.674083 3.303851 0 0 0
111 2 9.511043 8.706773 1.93343 0 0 0
118 2 8.673328 8.223118 3.303851 0 0 0
134 2 10.348758 8.223118 3.303851 0 0 0
140 2 9.511043 6.313821000000001 0 0 0 0
165 4 9.511043 5.342792000000001 0.342545 0 0 0
168 4 9.511043 8.706773 2.9597559999999996 0 0 0
13 1 1.824601854166032 3.4140584678679353 5.550260913922433 0 0 0
19 1 1.072428848720083 2.532855306270073 7.700517769056515 0 0 0
24 1 3.5936874483866665 0.23995274758538188 5.753822649931542 0 1 0
26 1 1.8203049062075474 4.857739811405878 7.445176572069389 0 0 0
84 2 0.6156248277457073 0.6324423091809576 4.030919122349554 0 0 0
85 2 1.842593349724255 0.4474045624217097 5.211652939546835 0 0 0
132 2 4.29579811404072 2.588945797430149 8.010225578675799 0 0 0
138 2 3.1090008946036565 4.564165665445483 5.224292950338265 0 0 0
162 4 0.8098132332739838 0.5038026962120306 5.028619518284764 0 0 0
173 5 0.6481509328224717 3.8358827258963917 6.722564474648442 0 0 0
2 1 6.590908604505929 2.1677496218948256 7.199917099173777 0 0 0
17 1 4.947944504489205 4.10985914867093 7.406793682876087 0 0 0
39 1 5.176291837304364 2.9926789963318225 5.337017055583837 0 0 0
86 2 6.293020029579815 0.7819708603346853 6.091460797968507 0 0 0
102 2 7.406151513103205 0.6736702466266574 4.816453093496151 0 0 0
143 2 5.754345573205945 0.9992739311985782 4.521965484401824 0 0 0
167 4 6.42316530812027 0.48457618857783363 5.099498363752583 0 0 0
172 5 6.303555669639496 3.683792085636101 6.395002320781663 0 0 0
14 1 7.631002715252307 3.256384174498901 5.340964520020469 0 0 0
18 1 11.076597859609384 4.30886397806347 7.863979678220561 0 0 0
22 1 11.13305110098283 2.870105426827888 5.886857877923784 0 0 0
25 1 7.395065899467567 4.428590569773474 7.5062848803598206 0 0 0
83 1 9.170381726902892 0.3619464777840813 5.405310248744434 0 1 0
97 2 8.166454783194311 2.67357668797494 8.095028837164488 0 0 0
131 2 8.565395465223544 4.6989876337041245 5.283622067405644 0 0 0
144 2 0.4099398883011596 1.347058083255971 5.524654697566302 1 0 0
15 1 2.303332727901137 9.281642128520023 7.538375481981479 0 0 0
37 1 2.479599598018996 8.167082196364902 5.4039096352743154 0 0 0
40 1 3.6462861976528336 7.281654231472065 7.352604237360357 0 0 0
41 1 0.1978778925901825 5.196812174040657 5.710887929810693 0 0 0
98 2 11.102866723313085 7.617619144369634 8.041242594679717 -1 0 0
99 2 3.9056366506449733 5.888415983698477 5.889232112809356 0 0 0
137 2 0.293833006262142 9.75383968303911 5.334313847287099 0 0 0
145 2 2.616353868147425 6.08495205813082 4.847552551550196 0 0 0
170 4 3.446438175170136 5.516655655985919 5.036962227264645 0 0 0
174 5 3.605598205082417 8.799407134844547 6.525287877507703 0 0 0
11 1 4.923030559328934 8.251020667002107 5.598849113943293 0 0 0
23 1 6.252007362669277 5.230232923468697 5.588328535675837 0 0 0
28 1 4.699408853638338 9.464728645482246 7.743863739010294 0 0 0
103 2 4.136143523507678 5.570904464003306 4.261141245274605 0 0 0
114 2 7.081674135065534 8.078388022114051 8.05108204409878 0 0 0
136 2 6.2170916466991955 9.574360107351374 5.02454798601469 0 0 0
12 1 10.704559763592705 8.584822230069223 5.6765749626997835 0 0 0
16 1 7.831536510761168 9.534001381645853 7.267251132843368 0 0 0
21 1 9.371481556998946 7.741856055358258 7.527476128059948 0 0 0
27 1 10.223907209909422 10.006306006604902 7.59011705979526 0 0 0
38 1 8.349112179202379 8.209676247439564 5.333170224989616 0 0 0
104 2 10.159135063076528 5.250303095949767 5.563444931690451 0 0 0
107 2 9.424350503825307 5.576623179172831 4.121411909371601 0 0 0
116 2 8.823696307848627 6.360264728877607 5.454420439856876 0 0 0
169 4 9.248150697363261 5.473042056736721 5.114273548139561 0 0 0
178 5 9.272920841876049 9.130919665691636 6.470011362980767 0 0 0
87 2 4.129862503453539 0.8743113107564597 8.263750039159683 0 0 0
101 2 2.768071680397158 1.858251993841794 8.174003772311337 0 0 0
157 4 3.7677646482882663 1.8097342675885342 8.475649088955993 0 0 0
70 1 6.636200620333803 2.3367496022904857 10.098288495933913 0 0 0
73 1 6.40385237666379 0.025626038020308755 11.199064243000318 0 0 0
79 1 2.728090814255862 3.7239494900652823 10.193729543464029 0 0 0
121 2 3.8411131644305305 1.9330920497763462 9.492842390436419 0 0 0
71 1 8.540231795218416 1.1562849743846944 11.329450279951535 0 0 0
122 2 9.38682017719623 1.4784388406147646 7.92583937007995 0 0 0
123 2 9.819759059808117 3.087065375966037 8.200878644122 0 0 0
127 2 9.059134193906887 2.1272847352263873 9.426160489728042 0 0 0
158 4 9.1011542352311 2.338729593435041 8.415690775443524 0 0 0
64 1 1.7553517439705595 6.1010649065683396 10.116945523181013 0 0 0
124 2 0.598740825159339 6.8122521064255395 7.103375096768793 0 0 0
128 2 0.7179766789061308 6.707144695045536 8.745617812083154 0 0 0
159 4 0.44609330983702944 7.339146656618604 7.976395630265154 0 0 0
81 1 4.130983912351261 7.293665234055868 10.114451513224303 0 0 0
100 2 7.0901160424610215 6.437586421057179 7.639925355969338 0 0 0
125 2 6.627294611340486 6.913334016612525 9.19214106683924 0 0 0
129 2 5.602232517568953 7.252754372114855 7.894026199858387 0 0 0
154 3 3.5599739078896904 5.45109916233846 9.908286533424151 0 0 0
161 4 6.5925280806833655 7.164949901197543 8.18903461489031 0 0 0
46 1 9.69535200007343 7.8182139638183825 10.43707935971519 0 0 0
61 1 7.262824299822096 7.37022000604941 10.891414043696717 0 0 0
63 1 9.017340188605335 5.5255386102648405 9.871550876410769 0 0 0
130 2 1.100205722807775 8.175473480284158 7.983304622710581 1 0 0
49 1 1.6342857859198634 1.7150241422680659 12.907057504341106 1 0 0
151 3 0.14908711297583763 2.2580367980433134 13.929197726714873 1 0 0
53 1 8.655819224647086 5.698079440696672 15.56431424696365 0 0 0
69 1 4.849465952711655 1.7919200781091318 12.121646590154182 0 0 0
72 1 7.00959778317353 0.8509049360362605 13.624821167143965 0 0 0
149 3 6.7748879527874175 1.704018408285944 11.890294467275075 0 0 0
48 1 0.8747615026423116 4.0414976063577885 14.014629435074076 1 0 0
50 1 10.868412524101217 0.7206612043132457 13.304533440883667 0 0 0
51 1 11.11819891223247 3.0263778077751713 12.419634828510597 0 0 0
76 1 1.7371870913815792 7.831432237649873 15.75702753871945 1 0 0
82 1 3.534500339253394 5.45229652556155 11.7691206972959 0 0 0
80 1 5.345034899458359 4.7690690230895445 10.29312294191285 0 0 0
44 1 9.103499694777726 7.924847406060489 12.81606531126487 0 0 0
45 1 10.741015529952138 5.983608615508561 11.814717189079591 0 0 0
75 1 11.084158859864557 6.506585167723509 14.90477234810012 0 0 0
150 3 8.922098509553642 6.549108622736706 11.532119531458793 0 0 0
29 1 1.9792503134245292 4.259363525396059 18.38499396492626 0 0 0
57 1 1.0171672490531194 2.5223351681978157 16.880874028518733 0 0 0
58 1 11.237327562658837 4.399476750866397 18.12139203950194 -1 0 0
59 1 0.5339054954721102 3.597869564643408 20.52959556612588 0 0 0
60 1 2.184219123914517 1.846366530709762 19.257970409721747 0 0 0
148 3 0.6999181561899451 2.9565924835045565 18.709733717202347 0 0 0
54 1 7.585832848210485 4.092597718901111 13.245047007750532 0 0 0
55 1 5.874786530217488 3.113637005224933 15.148976473623767 0 0 0
56 1 6.31142705149494 5.604844274273922 14.877173157292706 0 0 0
152 3 7.463084757826432 4.19955804375565 15.24829382684141 0 0 0
47 1 10.057287917404597 2.764806468503386 14.578413323970713 0 0 0
52 1 7.015494322114286 4.480757536602726 17.042989350032858 0 0 0
74 1 9.631496615442726 8.68833321029485 15.855570013360536 0 0 0
77 1 0.38310186305307814 9.897952615844584 16.43045938361981 1 0 0
78 1 11.25428488647372 7.465285704728807 17.22242504479765 0 0 0
153 3 11.528207433716913 8.238837120032365 15.589087614198183 0 0 0

Velocities

6 0 0 0
20 0 0 0
36 0 0 0
65 0 0 0
91 0 0 0
93 0 0 0
105 0 0 0
109 0 0 0
133 0 0 0
141 0 0 0
160 0 0 0
163 0 0 0
177 0 0 0
10 0 0 0
32 0 0 0
90 0 0 0
96 0 0 0
108 0 0 0
115 0 0 0
119 0 0 0
142 0 0 0
146 0 0 0
155 0 0 0
156 0 0 0
5 0 0 0
9 0 0 0
31 0 0 0
35 0 0 0
42 0 0 0
66 0 0 0
92 0 0 0
113 0 0 0
120 0 0 0
171 0 0 0
8 0 0 0
30 0 0 0
34 0 0 0
67 0 0 0
89 0 0 0
110 0 0 0
112 0 0 0
117 0 0 0
126 0 0 0
139 0 0 0
164 0 0 0
166 0 0 0
176 0 0 0
4 0 0 0
33 0 0 0
62 0 0 0
68 0 0 0
95 0 0 0
135 0 0 0
147 0 0 0
175 0 0 0
1 0 0 0
3 0 0 0
7 0 0 0
43 0 0 0
88 0 0 0
94 0 0 0
106 0 0 0
111 0 0 0
118 0 0 0
134 0 0 0
140 0 0 0
165 0 0 0
168 0 0 0
13 -1.8422951594035912 3.206098058000726 -2.5469132666143453
19 -2.228803783185613 -1.0791321488379821 -3.00379361290457
24 -1.3605289640737686 -0.8285859616195573 -4.05185988284917
26 -0.7842117915402902 -1.6666224174122497 -0.7149035016589754
84 14.16822299302255 -18.162261466091998 -3.7224902177091668
85 8.114380056896811 -4.090274512817579 -2.935262949365239
132 -0.382031548546174 -0.520271068449114 -10.320045652524191
138 -3.2123759460931476 -3.7112523799369783 15.266456983249217
162 6.571490149052564 -0.10892629192446228 -4.043712566995878
173 -1.5275060218984942 1.3580611740477526 -1.1312852074996709
2 2.4627699126875906 1.6302637534676623 -1.379799648285674
17 -0.7002031677674946 -1.2167781487881424 1.300756662639757
39 -4.186989848807555 2.8633860700937928 2.648476163501078
86 1.2240864530855262 7.8809827541257675 -9.55091677963785
102 0.9539248753499332 8.788644265055817 6.242313697598001
143 -1.712616975500935 -1.051229736236377 0.7712553627287871
167 -1.334252982527701 -0.21173149479366274 -2.358162125694244
172 0.40676135852995526 -3.0408146906048175 -4.146943595162423
14 -2.996321962164779 -4.061141916152348 0.6232016352182437
18 0.3313579690529731 -0.5058695785571997 2.1852760053070965
22 -0.1186090752447237 0.4541571028017897 -0.26310355502552035
25 2.4857976896182756 -2.293467140141447 -3.2810919312956655
83 -5.548293808481427 -0.5212952107618873 1.8456724076710969
97 -3.497078618637773 -2.420726628660157 -13.111329115504532
131 -6.458511485952652 1.375949285287942 -14.255753823324083
144 -7.6580554152660625 12.977659805544862 -18.39976248396717
15 -2.6615726808627054 1.4179782186365835 -2.9608255960652876
37 -1.7467023268647006 0.8979216351796904 -1.9702924506287744
40 -1.1864555240744132 2.067330186683076 -0.2111097556301567
41 0.6079478709330579 0.44399014376806756 0.01727331145845223
98 -3.9806014978425 -19.632099028860168 -3.8674191377754297
99 -8.22782307405258 4.330822529230966 -8.68730066565941
137 -13.706850473585082 3.6083928052305105 13.460007843591963
145 -5.105880605538576 4.139466506680283 -2.9819683115174564
170 -1.612822962964568 0.18899818587904993 -3.6434699059439577
174 -2.4720337481998214 -0.15568716949650507 -1.039730055345009
11 0.9995566895649678 -2.863681531506304 2.1265530759878732
23 2.9418946448101444 1.6604318784871615 2.2890630618212557
28 0.8051694571385415 -1.133629188979166 0.6287233605910207
103 0.5413917547882346 4.04559828836682 -0.7687123552419166
114 -2.196881549941748 -9.620589450839828 -1.9204133150010536
136 11.458532341357852 -4.8010879273532465 -5.386159897053607
12 -1.9188376764167283 -0.8233807173049477 1.5944125921332646
16 -3.6308907545359497 -2.7229974996685327 -2.2388321339963113
21 -0.8300707761425922 0.8930542966074869 1.1419919780709247
27 -3.298497280936829 -0.31022665777783026 -3.208679018915765
38 1.8575621802145117 -4.645576711088177 0.17936602272650573
104 1.1550132442935581 2.087152866202688 0.12256936909118672
107 4.276913531060043 -13.942061451210813 -8.52708665271961
116 2.295361517171999 2.0641660185379314 -13.248787824395615
169 1.1486682410164764 0.46683510936756045 -1.873124792708092
178 -0.09154967074901964 -0.35393450992667386 0.1477645905994113
87 4.653151083717425 1.4537184794643558 9.623151440766366
101 -7.939088484015026 -13.681598200931731 -5.648115882952442
157 -4.290306160857113 -3.7360008164304443 -5.2579325264498955
70 -0.9444404299083949 -1.685863474444639 -2.120041325314604
73 -2.0366904260326746 2.112946375252541 -0.5458451103420396
79 1.9321454317284656 -5.054018185426497 -0.9786400050010825
121 -15.962798467205708 6.96547022438529 0.3026818982958439
71 -1.5650658920923413 -2.9074276421446084 1.4347905310331557
122 -1.7975983572396572 -4.511253619211115 -0.4459742104746507
123 -16.30871051290862 -2.97043566231397 3.472830775611694
127 -21.168339064420035 4.646071674682148 -2.961452673606989
158 -0.9971928037753544 -0.9132376197119076 -2.2611239001559196
64 1.0463484671060694 -1.5850061872749819 -4.115610836004382
124 -0.9531698946538072 4.470304500900041 -0.9302527582230437
128 -1.8143391530064419 -3.9305085470412036 -2.0268867321257105
159 0.4889195815276257 1.0150958114852562 1.3697099355875024
81 -1.9657453853821716 -0.15284989016045944 1.3258149736289409
100 0.06137152038913442 6.946016915466743 -9.357991298035518
125 5.48552537941404 -3.277742749660515 3.883195273203968
129 6.260133490796618 4.812177868558589 3.254261148356733
154 1.6019392375643473 -2.2592280946555223 0.9641743607238975
161 0.002216132406752427 1.0853233567819507 -0.06591537625582294
46 3.19664421705099 2.7415181033355913 1.1981264329545873
61 0.23228225943988084 -2.0707361874851253 -2.2867948728871332
63 -0.8817996732222979 2.2008565227221344 -1.6221788967690707
130 3.5366438686374444 9.383628857394891 6.761689600788067
49 -3.506200057771342 3.808276168402818 -6.0873767218325385
151 0.27909087876189387 -1.0775262523525577 2.136337838647468
53 6.331426854645905 -5.778064405068669 -3.1483578382668567
69 2.420291127289623 3.3531000182567765 0.3719744902893894
72 0.30259742208113477 2.991166943776646 -2.1384883931178673
149 0.19458167073276844 -0.13597216731822057 1.456073479838565
48 1.298866311781704 -1.3162182822066602 -8.871564548617087
50 3.8099313646204958 -0.5174989561749394 -0.7536055838082428
51 -3.7393593649297805 7.141116343006356 0.9365287106615462
76 4.9085124827449444 7.03300530485124 -1.3181254020080366
82 -0.9830119401831653 -4.128679220144337 1.5408687763843811
80 -1.0420691687971215 -1.734618378228783 3.511150811904389
44 -3.174094097654715 -0.0851760226822262 2.6179392289515704
45 4.718196353285314 6.828277148056814 0.15873390831786235
75 2.223562648394965 -2.67982130329413 1.2284451240772232
150 1.9451059191050122 -2.607594947128613 -0.9397766251699694
29 -4.663282119426727 -5.291101338024572 -0.05566321521499652
57 -4.170483630608097 1.8664775051720435 3.4131398576413456
58 -1.8694561931976865 -3.7076719247667445 -3.6766625671259825
59 0.8219486371096048 0.6792759519709483 4.200127415265915
60 -4.617695854920807 -3.742132110446684 2.7454361474396483
148 -2.7470199279488674 -1.5925126349126515 1.3242027315874811
54 -5.462065696288582 1.753083905438378 0.34607627644681016
55 -0.8722267543640578 -0.027412476559273122 -2.9694400111057266
56 3.03113119151944 -0.16544025952695032 3.29115655022209
152 -0.9707906130156718 -2.77920190959432 -0.007333949773093853
47 2.7153348204991796 5.317635812085474 3.23251526772434
52 1.7038467560712278 -1.2138984848288814 -0.9574171883628865
74 2.0056416507817905 -5.503952499801486 -5.332921727461287
77 -4.907083218496339 2.5910078108701224 2.0194827773636352
78 7.988876312227548 2.735155670663647 -1.6633020866568138
153 1.154838140965119 2.5998429203867777 -0.4818514033930037
