LAMMPS data file via write_data, version 2 Aug 2023, timestep = 1000, units = metal

216 atoms
5 atom types

0 11.6531699554688 xlo xhi
0 10.0919412160536 ylo yhi
0 38.509432000000004 zlo zhi

Masses

1 18.998403163
2 1.008
3 126.90447
4 14.007
5 28.085

Atoms # atomic

1 1 2.464689 2.6830460000000005 0.8160649999999998 0 0 0
5 1 2.463813 1.274072 2.800345999999999 0 0 0
9 1 3.6844579999999993 0.570344 0.8160649999999998 0 0 0
26 1 3.6844579999999993 3.388292 2.800345999999999 0 0 0
121 2 0.771166 3.660802 1.9334299999999995 0 0 0
125 2 0.771166 4.628112 3.303850999999999 0 0 0
158 2 2.843523 4.857278 0 0 0 0
176 2 1.60888 3.177147 3.303850999999999 0 0 0
181 2 0.771166 0.296822 1.3692119999999997 0 0 0
184 2 0.771166 1.26785 0 0 0 0
196 4 0.771166 3.660802 2.9597559999999996 0 0 0
198 4 0.771166 0.296822 0.3425449999999998 0 0 0
210 5 3.6844579999999993 1.978812 1.8016859999999997 0 0 0
41 1 4.905104 1.274072 2.800345999999999 0 0 0
90 1 4.904228 2.6830460000000005 0.8160649999999998 0 0 0
117 2 4.525393 4.857278 0 0 0 0
122 2 6.597750999999999 3.660802 1.9334299999999995 0 0 0
132 2 5.760036 3.177147 3.303850999999999 0 0 0
152 2 6.597750999999999 4.628112 3.303850999999999 0 0 0
163 2 6.597750999999999 1.26785 0 0 0 0
177 2 7.435464999999999 3.177147 3.303850999999999 0 0 0
180 2 6.597750999999999 0.296822 1.3692119999999997 0 0 0
195 4 6.597750999999999 3.660802 2.9597559999999996 0 0 0
202 4 6.597750999999999 0.296822 0.3425449999999998 0 0 0
6 1 8.290398 1.274072 2.800345999999999 0 0 0
11 1 9.511043 0.570344 0.8160649999999998 0 0 0
25 1 9.511043 3.388292 2.800345999999999 0 0 0
37 1 8.291273999999998 2.6830460000000005 0.8160649999999998 0 0 0
40 1 10.731689 1.274072 2.800345999999999 0 0 0
97 1 10.730812999999998 2.6830460000000005 0.8160649999999998 0 0 0
118 2 10.351978 4.857278 0 0 0 0
134 2 11.586621 3.177147 3.303850999999999 0 0 0
183 2 8.670108 4.857278 0 0 0 0
211 5 9.511043 1.978812 1.8016859999999997 0 0 0
20 1 0.771166 5.616314 0.8160649999999998 0 0 0
24 1 0.771166 8.434263 2.800345999999999 0 0 0
39 1 1.991811 6.320043 2.800345999999999 0 0 0
92 1 1.990935 7.729017 0.8160649999999998 0 0 0
114 2 3.6844579999999993 8.706773 1.9334299999999995 0 0 0
115 2 1.612101 9.903249 0 0 0 0
144 2 3.6844579999999993 9.674083 3.303850999999999 0 0 0
160 2 3.6844579999999993 6.313821000000001 0 0 0 0
168 2 2.846743 8.223118 3.303850999999999 0 0 0
179 2 3.6844579999999993 5.342792000000001 1.3692119999999997 0 0 0
199 4 3.6844579999999993 8.706773 2.9597559999999996 0 0 0
208 4 3.6844579999999993 5.342792000000001 0.3425449999999998 0 0 0
212 5 0.771166 7.024783000000001 1.8016859999999997 0 0 0
7 1 5.377105 6.320043 2.800345999999999 0 0 0
12 1 6.597750999999999 5.616314 0.8160649999999998 0 0 0
36 1 5.377981 7.729017 0.8160649999999998 0 0 0
67 1 6.597750999999999 8.434263 2.800345999999999 0 0 0
116 2 7.438686 9.903249 0 0 0 0
156 2 5.756815 9.903249 0 0 0 0
169 2 4.522173 8.223118 3.303850999999999 0 0 0
213 5 6.597750999999999 7.024783000000001 1.8016859999999997 0 0 0
8 1 11.20369 6.320043 2.800345999999999 0 0 0
35 1 11.204566 7.729017 0.8160649999999998 0 0 0
38 1 7.818396 6.320043 2.800345999999999 0 0 0
101 1 7.81752 7.729017 0.8160649999999998 0 0 0
120 2 9.511043 8.706773 1.9334299999999995 0 0 0
124 2 9.511043 9.674083 3.303850999999999 0 0 0
130 2 8.673328 8.223118 3.303850999999999 0 0 0
159 2 9.511043 6.313821000000001 0 0 0 0
170 2 10.348758 8.223118 3.303850999999999 0 0 0
178 2 9.511043 5.342792000000001 1.3692119999999997 0 0 0
185 2 11.5834 9.903249 0 0 0 0
200 4 9.511043 5.342792000000001 0.3425449999999998 0 0 0
203 4 9.511043 8.706773 2.9597559999999996 0 0 0
22 1 1.7456805496104746 2.6308644054186408 5.3613039109759475 0 0 0
96 1 3.93280175659349 9.981238766999256 5.772179128077623 0 0 0
128 2 3.5414942468168253 1.1459835157865563 7.078929086562148 0 0 0
157 2 1.1502050621347828 0.9265769906461611 4.808661911623185 0 0 0
161 2 3.6801252960785327 4.628396382645336 4.224723941985349 0 0 0
175 2 1.0572160926041503 9.936356067161807 6.067316068827426 0 -1 0
197 4 0.6855151333523204 0.06614677189780091 5.134934813066585 0 0 0
215 5 0.6442099484078792 3.4639846187227494 6.370061740865208 0 0 0
29 1 5.401888138312309 2.8287012953485946 5.463504750001014 0 0 0
107 2 7.158688190505496 1.0249670194157434 5.430027298207721 0 0 0
165 2 6.452613803080621 0.2956112624101558 4.125886420520675 0 0 0
174 2 5.704228907577675 0.19129388015031754 5.602100423084532 0 0 0
206 4 6.613981078154433 0.19236963194440637 5.120815837761899 0 0 0
216 5 6.50365107796367 3.5326297889237264 6.5579154391929135 0 0 0
21 1 7.777715144512118 2.636046525943355 5.737379195023951 0 0 0
30 1 10.988400885838438 3.0178340220714723 5.3578332799006185 0 0 0
95 1 9.544389479116443 9.943250898527383 5.722528372649252 0 0 0
154 2 8.981429120212203 2.320811864750991 7.012804014226671 0 0 0
166 2 11.30185882177031 0.20118738289043345 5.171453410705253 0 0 0
171 2 9.540416575886 4.672415197289587 4.440547779732317 0 0 0
27 1 2.4651859221280765 8.062719798078938 5.267211949733862 0 0 0
94 1 0.8339566194024646 4.89829289812197 5.442870173591565 0 0 0
155 2 0.10054771859756599 7.638439381331869 8.008734798810423 0 0 0
162 2 0.9188965667756471 9.394962920871183 4.491038094767039 0 0 0
167 2 2.5465850837758532 5.432543019494512 5.172563414135934 0 0 0
173 2 3.8855604137388475 4.647336719639629 5.88227522449635 0 0 0
205 4 3.552741157305099 5.189024014183378 5.0764083590248275 0 0 0
214 5 3.5538529723986003 8.471742286475735 6.547293702780567 0 0 0
42 1 4.7235076121191355 7.647245336255173 5.628993888282438 0 0 0
93 1 6.675002080663112 4.853184303596017 5.435325101297507 0 0 0
109 2 4.112329599021021 6.049914268894605 5.038233272462767 0 0 0
119 2 7.302592097655879 6.7994975726282885 8.061255515506307 0 0 0
164 2 7.133893019896686 9.40093134266775 5.323008258987323 0 0 0
23 1 10.473075947372784 7.748828677892895 5.552169332283023 0 0 0
28 1 8.059194201171914 8.045769667131648 5.65328976985826 0 0 0
111 2 9.895421099401485 6.218259696880717 5.105879546959328 0 0 0
123 2 8.37773482158183 5.478309300218437 5.355671651645766 0 0 0
172 2 9.756270387783173 4.899919381942208 6.104896750942801 0 0 0
204 4 9.395651789547331 5.320019545809588 5.2381390474012 0 0 0
209 5 9.38440391457687 8.483307520336838 6.659025987577235 0 0 0
33 1 0.3856835107820075 2.0295305518962654 7.2922976822441266 0 0 0
88 1 2.2539717456922537 3.096572435994072 10.351674568039458 0 0 0
98 1 1.9731259211935166 3.933731056710183 7.357260230519647 0 0 0
105 2 3.044239444209307 2.588522170957108 7.841762935328996 0 0 0
112 2 3.3029238896417197 1.1693709476283554 8.749835696213351 0 0 0
194 4 3.6259731220107563 1.7235222953794165 7.930791756662928 0 0 0
3 1 5.207058953296741 4.407614574718064 7.299066230240654 0 0 0
34 1 6.315653799501255 2.224638118223573 7.653278794841647 0 0 0
81 1 9.117680678608213 2.8883159767997864 10.537546846420392 0 0 0
136 2 4.6298892450627 1.9875943470244528 8.03142532366328 0 0 0
4 1 11.189959208049688 4.365193815043915 7.355375230872073 0 0 0
83 1 11.338688406905272 4.0547254053271855 11.16092811098009 0 0 0
102 1 7.680208135089595 4.212041662198101 7.531233730229281 0 0 0
103 2 9.003973896677282 0.845722108383935 7.8613008276085115 0 0 0
138 2 10.394748538786853 1.8188137937545947 7.769020017885095 0 0 0
146 2 9.108311777198823 2.330060884040297 8.704803777022155 0 0 0
193 4 9.374689047228399 1.8188502367046138 7.847441761842185 0 0 0
10 1 2.2832331127865304 9.265309673549964 7.369726477422192 0 0 0
31 1 3.173799091416457 7.033503357051754 7.407331926626437 0 0 0
113 2 0.26197640118540744 5.961039750918869 7.785031140750784 0 0 0
140 2 1.6657824535648134 6.915673269878946 7.949960691733531 0 0 0
207 4 0.6641016459747996 6.794047931412729 8.257630544884245 0 0 0
100 1 4.736452767763024 8.867482129950089 7.73796449258988 0 0 0
126 2 5.848263264249032 5.940419127148526 7.883934554696217 0 0 0
142 2 6.229788916954552 6.6209481399630805 9.3403580442911 0 0 0
148 2 5.798480443729343 7.635057860324198 8.087763124657242 0 0 0
201 4 6.2984402599072755 6.753362996885747 8.341146496296123 0 0 0
2 1 8.31732439596138 9.280729464087212 7.719074170148298 0 0 0
32 1 9.184570971197454 6.993625589656308 7.502601457330999 0 0 0
82 1 9.28199810660384 5.478248283198822 11.040227183897274 0 0 0
99 1 10.682301362102487 8.932441850344176 7.659487593376648 0 0 0
150 2 0.6796711628271918 6.664258107351229 9.28369927464485 1 0 0
58 1 11.198734915640387 0.29510478479701885 14.19713773828039 0 0 0
86 1 2.2719654890461753 1.6301534585013422 12.309844855071686 0 0 0
87 1 2.2817990291106245 4.2761454670633245 12.647125687779333 0 0 0
189 3 3.4554665917632392 3.00643161195499 11.770414076160648 0 0 0
84 1 4.155805191858874 4.55645563888339 10.768610693678095 0 0 0
85 1 4.294578370738924 1.67684600866489 10.610633346126448 0 0 0
91 1 6.090381329106124 6.577259740511354 11.35357053492678 0 0 0
182 2 5.609325309731293 6.081371363355747 12.028933494238784 0 0 0
52 1 10.398388423006548 9.231688739845401 16.681787606596718 0 -1 0
80 1 10.514372635841454 2.203845722784091 12.685950368335632 0 0 0
145 2 10.666830402638814 0.9051839293937083 13.680765999135435 0 0 0
46 1 4.063083125431297 8.415193115547257 12.849212388245304 0 0 0
70 1 3.2166267238421984 8.181250495794695 10.25833412766992 0 0 0
71 1 0.9496435117340393 7.009844531293481 11.081469066018554 0 0 0
72 1 1.660723649204968 7.027818965119686 13.538410046351173 0 0 0
73 1 1.7243401457503789 9.063862039406619 12.221577273387307 0 0 0
186 3 2.6198125973324244 7.474550590212808 11.960815530110464 0 0 0
15 1 7.128206457432382 9.552222746183274 14.525499987651017 0 0 0
190 3 7.253401034383103 7.719594003021242 13.932657140371875 0 0 0
13 1 7.761778601117354 5.916808908707118 13.549241222568364 0 0 0
14 1 8.369357447840693 8.337311857306727 12.54703565379357 0 0 0
79 1 10.80186910681607 4.855117633792669 13.431586892600047 0 0 0
139 2 11.245904245753703 8.164419953111006 16.040378249549203 0 0 0
188 3 9.73227045656339 3.908979549437918 12.079837688824442 0 0 0
47 1 2.259800984614486 3.4033196802404913 18.79069898356834 0 0 0
48 1 1.0532142291695548 5.350144025235378 16.387318998480495 0 0 0
57 1 1.2699525456357157 1.2648951470693632 15.616371979246537 0 1 0
65 1 3.5762759199594534 1.6626209169241997 15.034169309722397 0 0 0
131 2 2.603346772100482 1.5802548891410826 15.177949652791893 0 0 0
49 1 5.181193372012201 3.3224113536331727 15.33974241898137 0 0 0
55 1 6.685700650657037 3.4780659762501 13.28917306886633 0 1 0
64 1 4.610272899286179 5.8625884000190664 13.239424513877802 0 0 0
108 2 4.301477615880776 2.8291542440690347 15.39393933585172 0 0 0
133 2 3.9873022076762994 5.586090308993086 13.962039437226268 0 0 0
151 2 6.30277278521101 3.708414608823399 14.13739162385262 0 1 0
75 1 11.428648565510423 3.0993151212820487 15.743266761351563 0 0 0
76 1 9.227900359561064 1.7528528189500947 15.245319429903287 0 0 0
77 1 8.296933016932611 2.3665046934737743 17.841874784771637 0 0 0
78 1 9.18670424407211 4.023990718033247 16.214639621115523 0 0 0
127 2 9.441561908650808 9.060386366962513 16.7121950000748 0 -1 0
192 3 10.042824193028634 2.534748656007748 16.834804550147158 0 0 0
62 1 3.1472757493221293 5.420959968166226 15.219414737169473 0 0 0
110 2 0.7040342586042099 6.285105024831092 16.162994348984338 0 0 0
147 2 0.5426178058886524 0.8335237978987807 15.099862386315525 0 1 0
16 1 6.497916891376469 7.055186606275695 15.604435465755602 0 0 0
19 1 5.642860923391634 9.076866296541189 17.2128958160307 0 0 0
43 1 3.4920770594313026 8.731725984121445 15.329272288896965 0 0 0
54 1 5.948237662311069 5.1004711077077545 16.991061092814988 0 0 0
137 2 2.2250504090992185 5.227557695625622 15.53010094820682 0 0 0
153 2 5.5258415264167535 4.314131954683156 16.612979705364744 0 0 0
187 3 3.8367618231155722 8.17711435250404 17.193418248321017 0 0 0
17 1 8.875978893973617 7.678511879639145 14.89316004832797 0 0 0
60 1 10.527557142907352 0.7533562054412113 19.18184196546999 0 1 0
61 1 0.0028256183184733885 7.417511555883857 15.558831915683687 1 0 0
141 2 10.199366012359064 9.919741601650847 19.217175557043934 0 0 0
66 1 3.815827260291754 1.7805020202672721 19.823345591087584 0 0 0
69 1 3.2138131450374594 4.054765215390701 21.113538262499393 0 0 0
129 2 9.990213772633265 1.3091801549773538 20.610737831849185 -1 0 0
191 3 4.020401055424077 3.5952776544962814 19.441894673061523 0 0 0
59 1 6.943678338576291 2.9636566330431804 19.839956042716622 0 0 0
68 1 4.397188247151585 2.871022499355504 17.619931239437307 0 0 0
143 2 7.7238700851682704 2.8700692363159983 19.293595567957137 0 0 0
51 1 8.085761784524417 9.237427177384493 17.599646045521215 0 -1 0
53 1 9.676971213131706 1.807222918201008 21.353057298722717 -1 0 0
74 1 10.462646489314794 3.6827607087939302 18.318794906315585 0 0 0
104 2 7.126755276842238 9.067917659868465 17.44936166123683 0 -1 0
44 1 1.9968297343779724 7.872902682278413 17.285557857673275 0 0 0
63 1 9.89970104473534 8.481032850522825 19.77011339249649 -1 0 0
89 1 3.6829844506618286 5.402512901501395 18.87583385438085 0 0 0
135 2 9.985878393706441 7.788589508127236 19.07895879972507 -1 0 0
18 1 3.8571827280197515 7.979591584773148 19.093727296121404 0 0 0
45 1 3.493471058091435 9.999908116295817 17.58281144889144 0 0 0
50 1 9.837340345830501 6.687078689895018 17.878508548217212 0 0 0
56 1 7.955984282872462 5.407880209043597 18.436272429995753 0 0 0
106 2 9.093219753682334 6.070191416525127 18.01477751410998 0 0 0
149 2 7.215411352802084 5.25424646124335 17.799019281237953 0 0 0

Velocities

1 0 0 0
5 0 0 0
9 0 0 0
26 0 0 0
121 0 0 0
125 0 0 0
158 0 0 0
176 0 0 0
181 0 0 0
184 0 0 0
196 0 0 0
198 0 0 0
210 0 0 0
41 0 0 0
90 0 0 0
117 0 0 0
122 0 0 0
132 0 0 0
152 0 0 0
163 0 0 0
177 0 0 0
180 0 0 0
195 0 0 0
202 0 0 0
6 0 0 0
11 0 0 0
25 0 0 0
37 0 0 0
40 0 0 0
97 0 0 0
118 0 0 0
134 0 0 0
183 0 0 0
211 0 0 0
20 0 0 0
24 0 0 0
39 0 0 0
92 0 0 0
114 0 0 0
115 0 0 0
144 0 0 0
160 0 0 0
168 0 0 0
179 0 0 0
199 0 0 0
208 0 0 0
212 0 0 0
7 0 0 0
12 0 0 0
36 0 0 0
67 0 0 0
116 0 0 0
156 0 0 0
169 0 0 0
213 0 0 0
8 0 0 0
35 0 0 0
38 0 0 0
101 0 0 0
120 0 0 0
124 0 0 0
130 0 0 0
159 0 0 0
170 0 0 0
178 0 0 0
185 0 0 0
200 0 0 0
203 0 0 0
22 -1.1542515485435416 -1.64600675424295 0.7238926524034337
96 -2.077287483451757 -1.5590881285327556 -0.308375891282097
128 -0.909451469738706 -3.8110739168260928 4.121694946117472
157 13.800514423698436 -10.089176501159372 -4.757700582366903
161 -4.003117995507393 -5.364412444547705 1.2804819593182701
175 0.9613775062410131 -6.295241635012617 4.950902284172696
197 -2.3536758885796463 -6.162035100849393 2.515046714988999
215 -1.5779509988109954 -0.9681548360269937 1.2896794535904885
29 -0.2778364828763608 0.1283826682437267 0.7837669363290202
107 2.429681433798985 -1.5946745673780773 0.7146280857558005
165 5.667309046399387 0.2054594222268943 3.1457061080562374
174 1.6857095062020095 4.662627192904579 -7.39022794484479
206 0.3718663827926239 0.22255959094129377 -1.1468480550732778
216 0.6111361998271492 -0.3985194470472008 -0.9206900805769119
21 -0.4957952875855629 0.40009999854824496 0.5891990306806776
30 -1.004285172164689 0.8033667070946392 -0.19393496374702776
95 -3.131156705702128 -1.5538645572150482 -1.381824095546229
154 -2.093401501867012 12.155591538271855 5.876406679395902
166 5.800981745048182 7.044086396842682 3.543031864567377
171 3.3647000335202666 -6.744490592155842 -2.4099072780674247
27 1.1754214833036831 -2.3199940757032937 0.7278619604784144
94 0.005387147195824206 0.47482211626981624 -0.40558343018015064
155 -4.341512153532166 -4.325899925481161 -3.6352166182726138
162 -9.417681357266735 1.0172871606044025 -5.380866755190141
167 -5.128614629065999 -7.291055815591469 6.828233544343021
173 -3.6913807185220477 -2.1229500827657306 0.7341552452606461
205 -0.0789709803720523 -2.9769453863995277 0.1982282347222102
214 -0.06743541325229059 -1.4746575226578371 -1.5551572552747759
42 -0.7420270479912366 -1.9613668865945355 -0.865835151104605
93 -1.5533269513495518 -0.7369933034861402 0.5909059849166568
109 -1.0129709646169602 -3.8295530970507605 -3.158421742226478
119 0.5772491585389374 3.720591685323834 -0.0566665892281818
164 -0.04843761238768621 -6.634860776096668 10.045264972560028
23 0.9492614186874777 -0.2047864737144243 -3.278138463381928
28 0.2716560029752714 1.1275781552147606 -0.4075441706054533
111 -6.5314058491294205 3.7910421377267536 -8.977384663951744
123 -4.999687787875242 -3.4932052826914903 -1.1184749534943135
172 -0.3737540232344529 1.584172983901552 8.128714623958855
204 -0.3247686395358587 4.106153856394489 0.6218053976032598
209 -1.2788832354373456 0.27554555526115937 -1.9798424196727862
33 -1.7086393316351296 -0.861590153296198 -0.0053536695100897935
88 4.5372679716551305 5.304694594474876 -1.1306870268867608
98 -1.898306504744109 -1.824612593192196 1.360355077969695
105 -0.7974827446970835 -0.6170325498485283 -3.0340301369702236
112 -3.919786777378774 2.961798074372785 -3.506778769256354
194 0.1260437977536689 0.1455721791020256 0.22534889479494133
3 -1.8595255466534188 -0.5404874014207427 -0.3629748187106766
34 0.6989567399750867 1.0112887239271249 1.5385186084396902
81 -4.869281914207811 0.5176328788868801 0.15287586837029637
136 -1.5237951996963879 -3.027865230563906 8.040236249463536
4 0.4641055071191137 0.3325966075828178 -1.045172435979684
83 -1.549359290859441 0.5960227165581053 -4.116034242736972
102 0.26599296375156184 1.8290372761841267 -1.2159079981751364
103 -10.120158570467524 9.425356384054563 -3.2205406761040325
138 -0.26779193372292337 1.1923204975009147 7.512906389168137
146 5.543144401371619 6.536608376609941 -0.5322433476801056
193 0.16234000033302576 2.465076646691276 2.695567623701046
10 1.5014709676041476 -2.834883326675038 0.4629185763053589
31 -2.623246941794238 -1.1287505806675506 0.1839989218251913
113 -5.486332132682882 0.02803087925085843 6.743821750281358
140 -7.480134697457691 -8.315767200532239 -0.8680324693195829
207 0.13776502471608112 -1.147963722442666 -4.181014802076351
100 2.2266692670027974 0.4526718782657117 1.2046782164148078
126 4.806172448189123 -5.929696693359648 -7.109489459213965
142 2.6759138577544177 -4.61837633708528 0.24723700471098012
148 0.03787431647277481 1.735950798424692 3.213937664489074
201 0.9744792260584011 0.09323065212055438 -1.2144655867779492
2 -1.4492833185584653 1.3147091806477968 -4.0008515499387585
32 0.16477205863811017 0.4941914792469462 -0.4390402800313645
82 2.0286264618776966 -0.266805471600569 2.2537481347417234
99 0.7059243947342437 -0.414534165198783 -0.623638773602263
150 4.608952379888566 -1.6795440330596905 -6.366692503974039
58 -3.4121145674464115 -4.003751690830847 1.5150885629291129
86 -0.9099799750108253 5.737085407989909 -3.9978752608600376
87 3.7905605563025673 0.9168281267904019 -0.7983948755979503
189 1.1685026856496046 2.589318937731892 0.32662545400954407
84 -1.3792258879112111 -2.2203522099167814 3.5383071251213325
85 0.6417337027343543 3.0404885309342955 3.632609365716419
91 -1.3314702020934894 0.5573304231384536 -1.3445308695662055
182 5.617235091776569 -7.00833512253504 -9.678702802657286
52 -2.5377198816232247 1.0063530791154625 2.503746444137794
80 -2.220373785870228 3.9367808918041467 -1.7527184518687058
145 18.074961362738502 7.841830815021148 -7.902773725487208
46 -0.5578669252663451 0.40236587751726155 1.8269691845153517
70 -0.0789565496131962 0.018465422266032865 0.5017797901189117
71 -1.0007892836717907 2.9808081572576492 -1.6480587472635377
72 -8.022091362639745 4.0543298401553205 -2.9033836171831786
73 0.9424422185710893 2.342466788487191 -0.4273461077679956
186 -0.9062477277201905 0.6879918923837953 0.21852174856676845
15 -2.6643362882503876 -0.207320135093359 0.5482996910822187
190 -0.24867638352805707 -3.005817545699089 0.20265087837947418
13 -0.30992343394619193 3.1410561247594506 -3.2137452805423394
14 -3.433192324781392 -3.314679361554249 1.92148944902814
79 4.606583977994835 -2.3481001035377256 2.7798478047274635
139 -11.853058236996102 24.379188988521953 -19.117693603619248
188 0.7168527208649951 -0.937002692072055 -0.2836420459094399
47 4.48509818379493 1.9494236066082489 -2.618416313317003
48 -1.2098839117249935 -6.695938530961206 4.475136754668714
57 3.309287461296825 2.242010436051955 4.107191446009894
65 -0.5110136644768218 -1.4208388053464718 -8.297903788808723
131 8.219204351857941 -3.6297078919860004 12.046833021634285
49 -2.741113760836967 1.3654021896838184 6.929527791822988
55 -2.250921194555843 5.264348107471869 -1.4243184022043007
64 0.7029132469793649 2.810486337525665 0.05847938822498748
108 -19.99655792540304 39.017084543903096 -5.681423983758024
133 -10.282658780989356 1.1959301385155972 -10.397582266760091
151 -2.3010185103651115 9.83461654587696 2.9637169758431723
75 0.7797226171345604 -3.7770919945811365 -0.044929469772257424
76 -1.7103434559650712 5.300775109691706 1.2908328402853269
77 -3.220526685602058 -0.7731668422366784 -2.3732298428774636
78 0.9410111010136994 3.7227891795472776 6.494893393410488
127 -12.929746590601347 4.575609581277183 -23.922163645758168
192 0.06602172314502468 -0.8589724992965048 1.844194733720575
62 -2.0560009680998785 0.8838635298230487 1.5557960743512516
110 47.7518756188625 -0.5581935466848689 25.31965576767252
147 -0.22545076826370244 8.335992917092163 8.158344417730722
16 3.0748413705951427 -1.8040477218685909 1.7101775188456103
19 -0.06638821689676942 6.636213850172853 1.0977914943887481
43 2.937021935745353 0.1334937471103618 -1.201611931563277
54 -0.14739408261440573 -1.4584069715378343 2.105242575139596
137 -4.357019135658003 -2.0495854554584647 -10.450467596831828
153 4.058014108180085 -10.62214423679976 -11.930554632966578
187 0.12906846389671575 -0.7144836461822176 -1.2693481324874745
17 -2.8132505458844634 2.0631280163662664 -1.3734000827418749
60 -1.9411150164972837 -1.7491025659930735 -3.7550020905826766
61 -2.2423918048737743 -1.1021136750336262 8.235340036861327
141 1.0554343367984942 -17.955677837606668 19.66681782647775
66 4.742866341587919 -1.8046626959312604 5.361835859158873
69 0.5943214261529256 4.112698119284822 -1.2691463979085016
129 -11.682247493914785 -7.31990832183711 0.4582545210871885
191 2.050151337485697 0.8908965909669602 1.053584019271652
59 8.195768275905518 1.8844156541723598 0.5999109558928744
68 -3.05270315535833 0.42043561271910523 5.500322189979511
143 5.564709673131802 10.091129989113394 2.528185777486343
51 -2.9760618871847324 -4.747201749989752 0.2892341455165101
53 1.6602745243145254 -0.05287184475162244 0.19172955910319506
74 -0.5444246547066238 0.00744014932640881 2.635066133614264
104 -2.2134264105533816 -13.749951793098356 -14.955642551027086
44 -2.4302143668492677 1.7339389503084275 -0.7116354486980693
63 -4.930051137983764 -2.905749890480026 4.634817546010538
89 7.995264523165586 3.052163463661887 -0.7813982007929158
135 9.910651207419722 -20.125382572346762 20.977527075826185
18 -0.4384118901918587 2.2813887952095486 -2.291094617233792
45 -4.844397164199866 4.858691661837444 -0.22946647774175077
50 -6.515151436510353 4.82153116774233 -0.9160866969026623
56 4.681296770906523 2.756291150292456 4.471666618877486
106 20.986423061667093 -24.934699411498094 1.635593600976777
149 -14.902687128810669 -5.305982599925523 26.98767062500949
